
    -----------------------------------------------------------------------
          Psi4: An Open-Source Ab Initio Electronic Structure Package
                               Psi4 1.6.1 release

                         Git: Rev {HEAD} 5b9f6e3 


    D. G. A. Smith, L. A. Burns, A. C. Simmonett, R. M. Parrish,
    M. C. Schieber, R. Galvelis, P. Kraus, H. Kruse, R. Di Remigio,
    A. Alenaizan, A. M. James, S. Lehtola, J. P. Misiewicz, M. Scheurer,
    R. A. Shaw, J. B. Schriber, Y. Xie, Z. L. Glick, D. A. Sirianni,
    J. S. O'Brien, J. M. Waldrop, A. Kumar, E. G. Hohenstein,
    B. P. Pritchard, B. R. Brooks, H. F. Schaefer III, A. Yu. Sokolov,
    K. Patkowski, A. E. DePrince III, U. Bozkaya, R. A. King,
    F. A. Evangelista, J. M. Turney, T. D. Crawford, C. D. Sherrill,
    J. Chem. Phys. 152(18) 184108 (2020). https://doi.org/10.1063/5.0006002

                            Additional Code Authors
    E. T. Seidl, C. L. Janssen, E. F. Valeev, M. L. Leininger,
    J. F. Gonthier, R. M. Richard, H. R. McAlexander, M. Saitow, X. Wang,
    P. Verma, M. H. Lechner, and A. Jiang

             Previous Authors, Complete List of Code Contributors,
                       and Citations for Specific Modules
    https://github.com/psi4/psi4/blob/master/codemeta.json
    https://github.com/psi4/psi4/graphs/contributors
    http://psicode.org/psi4manual/master/introduction.html#citing-psifour

    -----------------------------------------------------------------------


    Psi4 started on: Monday, 02 January 2023 05:56PM

    Process ID: 612911
    Host:       d32cepyc045.crc.nd.edu
    PSIDATADIR: /afs/crc.nd.edu/user/b/bagbodek/psi4conda/share/psi4
    Memory:     500.0 MiB
    Threads:    1
    
  ==> Input File <==

--------------------------------------------------------------------------
#! Vibrational and thermo analysis of r32.
memory 2000 mb

molecule ch2f2 {

  C   -0.88400    2.63800   -0.06500
  H   -1.22900    3.61000   -0.42200
  H   -1.22900    1.79900   -0.67400
  F    0.48200    2.63600   -0.05400
  F   -1.32900    2.46000    1.21400

}

set basis 6-31G**

energy('mp2')

optimize('mp2', molecule=ch2f2)

set t 273.15

e, wfn = freq('mp2', molecule=ch2f2, return_wfn=True)
entropy = 1000 * psi_hartree2kcalmol * (variable('enthalpy correction') - variable('gibbs free energy correction')) / get_global_option('t')


set hessian_write on
vibanal_wfn(wfn)
entropy = 1000 * psi_hartree2kcalmol * (variable('enthalpy correction') - variable('gibbs free energy correction')) / get_global_option('t')

--------------------------------------------------------------------------

  Memory set to   1.863 GiB by Python driver.

Scratch directory: /tmp/
    SCF Algorithm Type (re)set to DF.

*** tstart() called on d32cepyc045.crc.nd.edu
*** at Mon Jan  2 17:56:52 2023

   => Loading Basis Set <=

    Name: 6-31G**
    Role: ORBITAL
    Keyword: BASIS
    atoms 1   entry C          line   115 file /afs/crc.nd.edu/user/b/bagbodek/psi4conda/share/psi4/basis/6-31gss.gbs 
    atoms 2-3 entry H          line    44 file /afs/crc.nd.edu/user/b/bagbodek/psi4conda/share/psi4/basis/6-31gss.gbs 
    atoms 4-5 entry F          line   166 file /afs/crc.nd.edu/user/b/bagbodek/psi4conda/share/psi4/basis/6-31gss.gbs 


         ---------------------------------------------------------
                                   SCF
               by Justin Turney, Rob Parrish, Andy Simmonett
                          and Daniel G. A. Smith
                              RHF Reference
                        1 Threads,   1907 MiB Core
         ---------------------------------------------------------

  ==> Geometry <==

    Molecular point group: c1
    Full point group: C1

    Geometry (in Angstrom), charge = 0, multiplicity = 1:

       Center              X                  Y                   Z               Mass       
    ------------   -----------------  -----------------  -----------------  -----------------
         C           -0.323040502350     0.063170864598    -0.452475863135    12.000000000000
         H           -0.668040502350     1.035170864598    -0.809475863135     1.007825032230
         H           -0.668040502350    -0.775829135402    -1.061475863135     1.007825032230
         F            1.042959497650     0.061170864598    -0.441475863135    18.998403162730
         F           -0.768040502350    -0.114829135402     0.826524136865    18.998403162730

  Running in c1 symmetry.

  Rotational constants: A =      1.63783  B =      0.34825  C =      0.30467 [cm^-1]
  Rotational constants: A =  49100.77581  B =  10440.26617  C =   9133.90284 [MHz]
  Nuclear repulsion =   76.783397412306670

  Charge       = 0
  Multiplicity = 1
  Electrons    = 26
  Nalpha       = 13
  Nbeta        = 13

  ==> Algorithm <==

  SCF Algorithm Type is DF.
  DIIS enabled.
  MOM disabled.
  Fractional occupation disabled.
  Guess Type is SAD.
  Energy threshold   = 1.00e-08
  Density threshold  = 1.00e-08
  Integral threshold = 1.00e-12

  ==> Primary Basis <==

  Basis Set: 6-31G**
    Blend: 6-31G**
    Number of shells: 24
    Number of basis functions: 55
    Number of Cartesian functions: 55
    Spherical Harmonics?: false
    Max angular momentum: 2

   => Loading Basis Set <=

    Name: (6-31G** AUX)
    Role: JKFIT
    Keyword: DF_BASIS_SCF
    atoms 1   entry C          line   121 file /afs/crc.nd.edu/user/b/bagbodek/psi4conda/share/psi4/basis/cc-pvdz-jkfit.gbs 
    atoms 2-3 entry H          line    51 file /afs/crc.nd.edu/user/b/bagbodek/psi4conda/share/psi4/basis/cc-pvdz-jkfit.gbs 
    atoms 4-5 entry F          line   271 file /afs/crc.nd.edu/user/b/bagbodek/psi4conda/share/psi4/basis/cc-pvdz-jkfit.gbs 

  ==> Integral Setup <==

  DFHelper Memory: AOs need 0.008 GiB; user supplied 1.397 GiB. Using in-core AOs.

  ==> MemDFJK: Density-Fitted J/K Matrices <==

    J tasked:                   Yes
    K tasked:                   Yes
    wK tasked:                   No
    OpenMP threads:               1
    Memory [MiB]:              1430
    Algorithm:                 Core
    Schwarz Cutoff:           1E-12
    Mask sparsity (%):       0.0661
    Fitting Condition:        1E-10

   => Auxiliary Basis Set <=

  Basis Set: (6-31G** AUX)
    Blend: CC-PVDZ-JKFIT
    Number of shells: 90
    Number of basis functions: 293
    Number of Cartesian functions: 293
    Spherical Harmonics?: false
    Max angular momentum: 3

  Minimum eigenvalue in the overlap matrix is 4.3518682885E-03.
  Reciprocal condition number of the overlap matrix is 7.4058761864E-04.
    Using symmetric orthogonalization.

  ==> Pre-Iterations <==

  SCF Guess: Superposition of Atomic Densities via on-the-fly atomic UHF (no occupation information).

   -------------------------
    Irrep   Nso     Nmo    
   -------------------------
     A         55      55 
   -------------------------
    Total      55      55
   -------------------------

  ==> Iterations <==

                           Total Energy        Delta E     RMS |[F,P]|

   @DF-RHF iter SAD:  -237.22174370499519   -2.37222e+02   0.00000e+00 
   @DF-RHF iter   1:  -237.84826826966361   -6.26525e-01   6.36466e-03 DIIS/ADIIS
   @DF-RHF iter   2:  -237.88546791493212   -3.71996e-02   3.55241e-03 DIIS/ADIIS
   @DF-RHF iter   3:  -237.89757403104997   -1.21061e-02   4.87882e-04 DIIS/ADIIS
   @DF-RHF iter   4:  -237.89798725512202   -4.13224e-04   1.05481e-04 DIIS/ADIIS
   @DF-RHF iter   5:  -237.89801275067103   -2.54955e-05   3.12294e-05 DIIS
   @DF-RHF iter   6:  -237.89801592723401   -3.17656e-06   7.58486e-06 DIIS
   @DF-RHF iter   7:  -237.89801614192950   -2.14695e-07   1.00551e-06 DIIS
   @DF-RHF iter   8:  -237.89801614483869   -2.90919e-09   8.55622e-08 DIIS
   @DF-RHF iter   9:  -237.89801614485452   -1.58309e-11   2.42160e-08 DIIS
   @DF-RHF iter  10:  -237.89801614485535   -8.24230e-13   7.27827e-09 DIIS
  Energy and wave function converged.


  ==> Post-Iterations <==

    Orbital Energies [Eh]
    ---------------------

    Doubly Occupied:                                                      

       1A    -26.306511     2A    -26.306493     3A    -11.408083  
       4A     -1.645516     5A     -1.587000     6A     -0.962972  
       7A     -0.766659     8A     -0.755761     9A     -0.739595  
      10A     -0.653210    11A     -0.618171    12A     -0.610083  
      13A     -0.530509  

    Virtual:                                                              

      14A      0.247886    15A      0.306922    16A      0.307010  
      17A      0.365635    18A      0.715489    19A      0.740858  
      20A      0.799099    21A      0.950066    22A      1.032434  
      23A      1.090264    24A      1.341722    25A      1.385221  
      26A      1.422272    27A      1.452058    28A      1.664032  
      29A      1.664281    30A      1.692019    31A      1.703816  
      32A      1.939235    33A      2.045200    34A      2.047522  
      35A      2.095247    36A      2.152002    37A      2.271033  
      38A      2.272824    39A      2.299203    40A      2.318753  
      41A      2.329631    42A      2.335182    43A      2.362775  
      44A      2.874932    45A      2.881460    46A      2.923895  
      47A      3.130145    48A      3.188381    49A      3.364130  
      50A      3.367002    51A      3.595823    52A      3.730438  
      53A      4.408920    54A      4.760047    55A      4.775250  

    Final Occupation by Irrep:
              A 
    DOCC [    13 ]

  @DF-RHF Final Energy:  -237.89801614485535

   => Energetics <=

    Nuclear Repulsion Energy =             76.7833974123066696
    One-Electron Energy =                -483.5816998734443928
    Two-Electron Energy =                 168.9002863162823758
    Total Energy =                       -237.8980161448553474

Computation Completed


Properties will be evaluated at   0.000000,   0.000000,   0.000000 [a0]

Properties computed using the SCF density matrix


 Multipole Moments:

 ------------------------------------------------------------------------------------
     Multipole            Electronic (a.u.)      Nuclear  (a.u.)        Total (a.u.)
 ------------------------------------------------------------------------------------

 L = 1.  Multiply by 2.5417464519 to convert [e a0] to [Debye]
 Dipole X            :          1.0143122           -1.5118812           -0.4975689
 Dipole Y            :         -0.1961884            0.2937437            0.0975554
 Dipole Z            :          1.4206805           -2.1171971           -0.6965166
 Magnitude           :                                                    0.8615261

 ------------------------------------------------------------------------------------

*** tstop() called on d32cepyc045.crc.nd.edu at Mon Jan  2 17:56:53 2023
Module time:
	user time   =       0.36 seconds =       0.01 minutes
	system time =       0.02 seconds =       0.00 minutes
	total time  =          1 seconds =       0.02 minutes
Total time:
	user time   =       0.36 seconds =       0.01 minutes
	system time =       0.02 seconds =       0.00 minutes
	total time  =          1 seconds =       0.02 minutes

*** tstart() called on d32cepyc045.crc.nd.edu
*** at Mon Jan  2 17:56:53 2023


  //>>>>>>>>>>>>>>>>>>>>>>>>>>>>>>>>>>>//
  //               DFMP2               //
  //<<<<<<<<<<<<<<<<<<<<<<<<<<<<<<<<<<<//

   => Loading Basis Set <=

    Name: (6-31G** AUX)
    Role: RIFIT
    Keyword: DF_BASIS_MP2
    atoms 1   entry C          line   159 file /afs/crc.nd.edu/user/b/bagbodek/psi4conda/share/psi4/basis/cc-pvdz-ri.gbs 
    atoms 2-3 entry H          line    19 file /afs/crc.nd.edu/user/b/bagbodek/psi4conda/share/psi4/basis/cc-pvdz-ri.gbs 
    atoms 4-5 entry F          line   273 file /afs/crc.nd.edu/user/b/bagbodek/psi4conda/share/psi4/basis/cc-pvdz-ri.gbs 

	 --------------------------------------------------------
	                          DF-MP2                         
	      2nd-Order Density-Fitted Moller-Plesset Theory     
	              RMP2 Wavefunction,   1 Threads             
	                                                         
	        Rob Parrish, Justin Turney, Andy Simmonett,      
	           Ed Hohenstein, and C. David Sherrill          
	 --------------------------------------------------------

   => Auxiliary Basis Set <=

  Basis Set: (6-31G** AUX)
    Blend: CC-PVDZ-RI
    Number of shells: 66
    Number of basis functions: 196
    Number of Cartesian functions: 228
    Spherical Harmonics?: true
    Max angular momentum: 3

	 --------------------------------------------------------
	                 NBF =    55, NAUX =   196
	 --------------------------------------------------------
	   CLASS    FOCC     OCC    AOCC    AVIR     VIR    FVIR
	   PAIRS       0      13      13      42      42       0
	 --------------------------------------------------------

	-----------------------------------------------------------
	 ==================> DF-MP2 Energies <==================== 
	-----------------------------------------------------------
	 Reference Energy          =    -237.8980161448553474 [Eh]
	 Singles Energy            =      -0.0000000000000000 [Eh]
	 Same-Spin Energy          =      -0.1302679980583378 [Eh]
	 Opposite-Spin Energy      =      -0.3616026843684063 [Eh]
	 Correlation Energy        =      -0.4918706824267440 [Eh]
	 Total Energy              =    -238.3898868272820835 [Eh]
	-----------------------------------------------------------
	 ================> DF-SCS-MP2 Energies <================== 
	-----------------------------------------------------------
	 SCS Same-Spin Scale       =       0.3333333333333333 [-]
	 SCS Opposite-Spin Scale   =       1.2000000000000000 [-]
	 SCS Same-Spin Energy      =      -0.0434226660194459 [Eh]
	 SCS Opposite-Spin Energy  =      -0.4339232212420875 [Eh]
	 SCS Correlation Energy    =      -0.4773458872615334 [Eh]
	 SCS Total Energy          =    -238.3753620321168682 [Eh]
	-----------------------------------------------------------


*** tstop() called on d32cepyc045.crc.nd.edu at Mon Jan  2 17:56:53 2023
Module time:
	user time   =       0.06 seconds =       0.00 minutes
	system time =       0.00 seconds =       0.00 minutes
	total time  =          0 seconds =       0.00 minutes
Total time:
	user time   =       0.42 seconds =       0.01 minutes
	system time =       0.02 seconds =       0.00 minutes
	total time  =          1 seconds =       0.02 minutes

Scratch directory: /tmp/
gradient() will perform analytic gradient computation.
    SCF Algorithm Type (re)set to DF.

*** tstart() called on d32cepyc045.crc.nd.edu
*** at Mon Jan  2 17:56:53 2023

   => Loading Basis Set <=

    Name: 6-31G**
    Role: ORBITAL
    Keyword: BASIS
    atoms 1   entry C          line   115 file /afs/crc.nd.edu/user/b/bagbodek/psi4conda/share/psi4/basis/6-31gss.gbs 
    atoms 2-3 entry H          line    44 file /afs/crc.nd.edu/user/b/bagbodek/psi4conda/share/psi4/basis/6-31gss.gbs 
    atoms 4-5 entry F          line   166 file /afs/crc.nd.edu/user/b/bagbodek/psi4conda/share/psi4/basis/6-31gss.gbs 


         ---------------------------------------------------------
                                   SCF
               by Justin Turney, Rob Parrish, Andy Simmonett
                          and Daniel G. A. Smith
                              RHF Reference
                        1 Threads,   1907 MiB Core
         ---------------------------------------------------------

  ==> Geometry <==

    Molecular point group: c1
    Full point group: C1

    Geometry (in Angstrom), charge = 0, multiplicity = 1:

       Center              X                  Y                   Z               Mass       
    ------------   -----------------  -----------------  -----------------  -----------------
         C           -0.323040502350     0.063170864598    -0.452475863135    12.000000000000
         H           -0.668040502350     1.035170864598    -0.809475863135     1.007825032230
         H           -0.668040502350    -0.775829135402    -1.061475863135     1.007825032230
         F            1.042959497650     0.061170864598    -0.441475863135    18.998403162730
         F           -0.768040502350    -0.114829135402     0.826524136865    18.998403162730

  Running in c1 symmetry.

  Rotational constants: A =      1.63783  B =      0.34825  C =      0.30467 [cm^-1]
  Rotational constants: A =  49100.77581  B =  10440.26617  C =   9133.90284 [MHz]
  Nuclear repulsion =   76.783397412306684

  Charge       = 0
  Multiplicity = 1
  Electrons    = 26
  Nalpha       = 13
  Nbeta        = 13

  ==> Algorithm <==

  SCF Algorithm Type is DF.
  DIIS enabled.
  MOM disabled.
  Fractional occupation disabled.
  Guess Type is SAD.
  Energy threshold   = 1.00e-10
  Density threshold  = 1.00e-10
  Integral threshold = 1.00e-12

  ==> Primary Basis <==

  Basis Set: 6-31G**
    Blend: 6-31G**
    Number of shells: 24
    Number of basis functions: 55
    Number of Cartesian functions: 55
    Spherical Harmonics?: false
    Max angular momentum: 2

   => Loading Basis Set <=

    Name: (6-31G** AUX)
    Role: JKFIT
    Keyword: DF_BASIS_SCF
    atoms 1   entry C          line   121 file /afs/crc.nd.edu/user/b/bagbodek/psi4conda/share/psi4/basis/cc-pvdz-jkfit.gbs 
    atoms 2-3 entry H          line    51 file /afs/crc.nd.edu/user/b/bagbodek/psi4conda/share/psi4/basis/cc-pvdz-jkfit.gbs 
    atoms 4-5 entry F          line   271 file /afs/crc.nd.edu/user/b/bagbodek/psi4conda/share/psi4/basis/cc-pvdz-jkfit.gbs 

  ==> Integral Setup <==

  DFHelper Memory: AOs need 0.008 GiB; user supplied 1.397 GiB. Using in-core AOs.

  ==> MemDFJK: Density-Fitted J/K Matrices <==

    J tasked:                   Yes
    K tasked:                   Yes
    wK tasked:                   No
    OpenMP threads:               1
    Memory [MiB]:              1430
    Algorithm:                 Core
    Schwarz Cutoff:           1E-12
    Mask sparsity (%):       0.0661
    Fitting Condition:        1E-10

   => Auxiliary Basis Set <=

  Basis Set: (6-31G** AUX)
    Blend: CC-PVDZ-JKFIT
    Number of shells: 90
    Number of basis functions: 293
    Number of Cartesian functions: 293
    Spherical Harmonics?: false
    Max angular momentum: 3

  Minimum eigenvalue in the overlap matrix is 4.3518682885E-03.
  Reciprocal condition number of the overlap matrix is 7.4058761864E-04.
    Using symmetric orthogonalization.

  ==> Pre-Iterations <==

  SCF Guess: Superposition of Atomic Densities via on-the-fly atomic UHF (no occupation information).

   -------------------------
    Irrep   Nso     Nmo    
   -------------------------
     A         55      55 
   -------------------------
    Total      55      55
   -------------------------

  ==> Iterations <==

                           Total Energy        Delta E     RMS |[F,P]|

   @DF-RHF iter SAD:  -237.22174370501722   -2.37222e+02   0.00000e+00 
   @DF-RHF iter   1:  -237.84826826968543   -6.26525e-01   6.36466e-03 DIIS/ADIIS
   @DF-RHF iter   2:  -237.88546791495398   -3.71996e-02   3.55241e-03 DIIS/ADIIS
   @DF-RHF iter   3:  -237.89757403107231   -1.21061e-02   4.87882e-04 DIIS/ADIIS
   @DF-RHF iter   4:  -237.89798725514481   -4.13224e-04   1.05481e-04 DIIS/ADIIS
   @DF-RHF iter   5:  -237.89801275069300   -2.54955e-05   3.12294e-05 DIIS
   @DF-RHF iter   6:  -237.89801592725684   -3.17656e-06   7.58486e-06 DIIS
   @DF-RHF iter   7:  -237.89801614195201   -2.14695e-07   1.00551e-06 DIIS
   @DF-RHF iter   8:  -237.89801614486126   -2.90925e-09   8.55622e-08 DIIS
   @DF-RHF iter   9:  -237.89801614487658   -1.53193e-11   2.42160e-08 DIIS
   @DF-RHF iter  10:  -237.89801614487814   -1.56319e-12   7.27827e-09 DIIS
   @DF-RHF iter  11:  -237.89801614487791    2.27374e-13   1.18236e-09 DIIS
   @DF-RHF iter  12:  -237.89801614487766    2.55795e-13   2.77784e-10 DIIS
   @DF-RHF iter  13:  -237.89801614487851   -8.52651e-13   6.63195e-11 DIIS
  Energy and wave function converged.


  ==> Post-Iterations <==

    Orbital Energies [Eh]
    ---------------------

    Doubly Occupied:                                                      

       1A    -26.306511     2A    -26.306493     3A    -11.408083  
       4A     -1.645516     5A     -1.587000     6A     -0.962972  
       7A     -0.766659     8A     -0.755761     9A     -0.739595  
      10A     -0.653210    11A     -0.618171    12A     -0.610083  
      13A     -0.530509  

    Virtual:                                                              

      14A      0.247886    15A      0.306922    16A      0.307010  
      17A      0.365635    18A      0.715489    19A      0.740858  
      20A      0.799099    21A      0.950066    22A      1.032434  
      23A      1.090264    24A      1.341722    25A      1.385221  
      26A      1.422272    27A      1.452058    28A      1.664032  
      29A      1.664281    30A      1.692019    31A      1.703816  
      32A      1.939235    33A      2.045200    34A      2.047522  
      35A      2.095247    36A      2.152002    37A      2.271033  
      38A      2.272824    39A      2.299203    40A      2.318753  
      41A      2.329631    42A      2.335182    43A      2.362775  
      44A      2.874932    45A      2.881460    46A      2.923895  
      47A      3.130145    48A      3.188381    49A      3.364130  
      50A      3.367002    51A      3.595823    52A      3.730438  
      53A      4.408920    54A      4.760047    55A      4.775250  

    Final Occupation by Irrep:
              A 
    DOCC [    13 ]

  @DF-RHF Final Energy:  -237.89801614487851

   => Energetics <=

    Nuclear Repulsion Energy =             76.7833974123066838
    One-Electron Energy =                -483.5816999202892816
    Two-Electron Energy =                 168.9002863631041009
    Total Energy =                       -237.8980161448785111

Computation Completed


Properties will be evaluated at   0.000000,   0.000000,   0.000000 [a0]

Properties computed using the SCF density matrix


 Multipole Moments:

 ------------------------------------------------------------------------------------
     Multipole            Electronic (a.u.)      Nuclear  (a.u.)        Total (a.u.)
 ------------------------------------------------------------------------------------

 L = 1.  Multiply by 2.5417464519 to convert [e a0] to [Debye]
 Dipole X            :          1.0143122           -1.5118812           -0.4975689
 Dipole Y            :         -0.1961884            0.2937437            0.0975553
 Dipole Z            :          1.4206805           -2.1171971           -0.6965166
 Magnitude           :                                                    0.8615261

 ------------------------------------------------------------------------------------

*** tstop() called on d32cepyc045.crc.nd.edu at Mon Jan  2 17:56:53 2023
Module time:
	user time   =       0.38 seconds =       0.01 minutes
	system time =       0.01 seconds =       0.00 minutes
	total time  =          0 seconds =       0.00 minutes
Total time:
	user time   =       0.84 seconds =       0.01 minutes
	system time =       0.03 seconds =       0.00 minutes
	total time  =          1 seconds =       0.02 minutes

*** tstart() called on d32cepyc045.crc.nd.edu
*** at Mon Jan  2 17:56:53 2023


  //>>>>>>>>>>>>>>>>>>>>>>>>>>>>>>>>>>>//
  //               DFMP2               //
  //<<<<<<<<<<<<<<<<<<<<<<<<<<<<<<<<<<<//

   => Loading Basis Set <=

    Name: (6-31G** AUX)
    Role: RIFIT
    Keyword: DF_BASIS_MP2
    atoms 1   entry C          line   159 file /afs/crc.nd.edu/user/b/bagbodek/psi4conda/share/psi4/basis/cc-pvdz-ri.gbs 
    atoms 2-3 entry H          line    19 file /afs/crc.nd.edu/user/b/bagbodek/psi4conda/share/psi4/basis/cc-pvdz-ri.gbs 
    atoms 4-5 entry F          line   273 file /afs/crc.nd.edu/user/b/bagbodek/psi4conda/share/psi4/basis/cc-pvdz-ri.gbs 

	 --------------------------------------------------------
	                          DF-MP2                         
	      2nd-Order Density-Fitted Moller-Plesset Theory     
	              RMP2 Wavefunction,   1 Threads             
	                                                         
	        Rob Parrish, Justin Turney, Andy Simmonett,      
	           Ed Hohenstein, and C. David Sherrill          
	 --------------------------------------------------------

   => Auxiliary Basis Set <=

  Basis Set: (6-31G** AUX)
    Blend: CC-PVDZ-RI
    Number of shells: 66
    Number of basis functions: 196
    Number of Cartesian functions: 228
    Spherical Harmonics?: true
    Max angular momentum: 3

	 --------------------------------------------------------
	                 NBF =    55, NAUX =   196
	 --------------------------------------------------------
	   CLASS    FOCC     OCC    AOCC    AVIR     VIR    FVIR
	   PAIRS       0      13      13      42      42       0
	 --------------------------------------------------------

  DFHelper Memory: AOs need 0.008 GiB; user supplied 1.397 GiB. Using in-core AOs.


         ------------------------------------------------------------
                                     CPHF                           
                                  Rob Parrish                       
         ------------------------------------------------------------

  ==> Geometry <==

    Molecular point group: c1
    Full point group: C1

    Geometry (in Angstrom), charge = 0, multiplicity = 1:

       Center              X                  Y                   Z               Mass       
    ------------   -----------------  -----------------  -----------------  -----------------
         C           -0.323040502350     0.063170864598    -0.452475863135    12.000000000000
         H           -0.668040502350     1.035170864598    -0.809475863135     1.007825032230
         H           -0.668040502350    -0.775829135402    -1.061475863135     1.007825032230
         F            1.042959497650     0.061170864598    -0.441475863135    18.998403162730
         F           -0.768040502350    -0.114829135402     0.826524136865    18.998403162730

  Nuclear repulsion =   76.783397412306684
  Reference energy  = -237.898016144878511

  ==> Basis Set <==

  Basis Set: 6-31G**
    Blend: 6-31G**
    Number of shells: 24
    Number of basis functions: 55
    Number of Cartesian functions: 55
    Spherical Harmonics?: false
    Max angular momentum: 2

  ==> CGRSolver (by Rob Parrish) <==

   Number of roots    =         1
   Preconditioning    =    JACOBI
   Convergence cutoff =     1E-06
   Maximum iterations =       100

  ==> CPHFRHamiltonian (by Rob Parrish) <== 

  ==> MemDFJK: Density-Fitted J/K Matrices <==

    J tasked:                   Yes
    K tasked:                   Yes
    wK tasked:                   No
    OpenMP threads:               1
    Memory [MiB]:              1430
    Algorithm:                 Core
    Schwarz Cutoff:           1E-12
    Mask sparsity (%):       0.0661
    Fitting Condition:        1E-10

   => Auxiliary Basis Set <=

  Basis Set: (6-31G** AUX)
    Blend: CC-PVDZ-JKFIT
    Number of shells: 90
    Number of basis functions: 293
    Number of Cartesian functions: 293
    Spherical Harmonics?: false
    Max angular momentum: 3

  ==> CPHF Iterations <==

  => Iterations <=

             Iter  Converged  Remaining    Residual
  CGR           1          0          1   9.583E-02
  CGR           2          0          1   1.447E-02
  CGR           3          0          1   4.920E-03
  CGR           4          0          1   1.091E-03
  CGR           5          0          1   1.616E-04
  CGR           6          0          1   2.824E-05
  CGR           7          0          1   5.782E-06
  CGR           8          0          1   1.720E-06
  CGR           9          1          0   3.193E-07

    CGRSolver converged.

  ==> DFCorrGrad: Density-Fitted Correlated Gradients <==

    OpenMP threads:              1
    Integrals threads:           1
    Memory [GiB]:            1.397
    Schwarz Cutoff:          0E+00
    Fitting Condition:       1E-10

   => Auxiliary Basis Set <=

  Basis Set: (6-31G** AUX)
    Blend: CC-PVDZ-JKFIT
    Number of shells: 90
    Number of basis functions: 293
    Number of Cartesian functions: 293
    Spherical Harmonics?: false
    Max angular momentum: 3

	-----------------------------------------------------------
	 ==================> DF-MP2 Energies <==================== 
	-----------------------------------------------------------
	 Reference Energy          =    -237.8980161448785111 [Eh]
	 Singles Energy            =      -0.0000000000000000 [Eh]
	 Same-Spin Energy          =      -0.1302679979650554 [Eh]
	 Opposite-Spin Energy      =      -0.3616026849110342 [Eh]
	 Correlation Energy        =      -0.4918706828760896 [Eh]
	 Total Energy              =    -238.3898868277545944 [Eh]
	-----------------------------------------------------------
	 ================> DF-SCS-MP2 Energies <================== 
	-----------------------------------------------------------
	 SCS Same-Spin Scale       =       0.3333333333333333 [-]
	 SCS Opposite-Spin Scale   =       1.2000000000000000 [-]
	 SCS Same-Spin Energy      =      -0.0434226659883518 [Eh]
	 SCS Opposite-Spin Energy  =      -0.4339232218932410 [Eh]
	 SCS Correlation Energy    =      -0.4773458878815928 [Eh]
	 SCS Total Energy          =    -238.3753620327601084 [Eh]
	-----------------------------------------------------------


  -Total Gradient:
     Atom            X                  Y                   Z
    ------   -----------------  -----------------  -----------------
       1       -0.001311809480     0.001040856453    -0.001677875960
       2       -0.000337712053     0.003672689061     0.000150523620
       3       -0.000505040983    -0.004211313177    -0.001259089259
       4        0.001950196941    -0.000195539926     0.000866084775
       5        0.000204365574    -0.000306692412     0.001920356824


*** tstop() called on d32cepyc045.crc.nd.edu at Mon Jan  2 17:56:54 2023
Module time:
	user time   =       0.43 seconds =       0.01 minutes
	system time =       0.02 seconds =       0.00 minutes
	total time  =          1 seconds =       0.02 minutes
Total time:
	user time   =       1.27 seconds =       0.02 minutes
	system time =       0.05 seconds =       0.00 minutes
	total time  =          2 seconds =       0.03 minutes

			-----------------------------------------
			 OPTKING 2.0: for geometry optimizations 
			  - R.A. King,  Bethel University        
			-----------------------------------------

	Internal coordinates to be generated automatically.
	Detected frag 1 with atoms:  1 2 3 4 5
	---Fragment 1 Bond Connectivity---
	 1 : 2 3 4 5
	 2 : 1
	 3 : 1
	 4 : 1
	 5 : 1

	---Fragment 1 Geometry and Gradient---
	 C          -0.6104580769        0.1193756332       -0.8550554597
	 H          -1.2624135902        1.9561894271       -1.5296876865
	 H          -1.2624135902       -1.4661045861       -2.0058986701
	 F           1.9709078105        0.1155961809       -0.8342684723
	 F          -1.4513862027       -0.2169956171        1.5619042548
	            -0.0013118095        0.0010408565       -0.0016778760
	            -0.0003377121        0.0036726891        0.0001505236
	            -0.0005050410       -0.0042113132       -0.0012590893
	             0.0019501969       -0.0001955399        0.0008660848
	             0.0002043656       -0.0003066924        0.0019203568

	Previous optimization step data not found.  Starting new optimization.

	---Fragment 1 Intrafragment Coordinates---
	 - Coordinate -           - BOHR/RAD -       - ANG/DEG -
	 R(1,2)           =         2.062537	       1.091448
	 R(1,3)           =         2.064760	       1.092624
	 R(1,4)           =         2.581452	       1.366046
	 R(1,5)           =         2.581085	       1.365851
	 B(2,1,3)         =         1.984193	     113.685859
	 B(2,1,4)         =         1.896548	     108.664199
	 B(2,1,5)         =         1.895855	     108.624484
	 B(3,1,4)         =         1.895583	     108.608933
	 B(3,1,5)         =         1.895457	     108.601673
	 B(4,1,5)         =         1.894481	     108.545763

	Current energy   :      -238.3898868278

	Generating empirical Hessian (Schlegel '84) for each fragment.
	Taking RFO optimization step.
	Going to follow RFO solution 1.
	Using RFO vector 1.
	Norm of target step-size    0.02707
	Projected energy change by RFO approximation:        -0.0001267277

	Back-transformation to cartesian coordinates...
	Successfully converged to displaced geometry.

	--- Internal Coordinate Step in ANG or DEG, aJ/ANG or AJ/DEG ---
	 ---------------------------------------------------------------------------
	   Coordinate                Previous        Force       Change         New 
	   ----------                --------       ------       ------       ------
	    1 R(1,2)          =      1.091448    -0.027421    -0.005081     1.086367
	    2 R(1,3)          =      1.092624    -0.033738    -0.006276     1.086348
	    3 R(1,4)          =      1.366046    -0.016126    -0.002001     1.364045
	    4 R(1,5)          =      1.365851    -0.014596    -0.001810     1.364042
	    5 B(2,1,3)        =    113.685859    -0.000238    -1.063431   112.622427
	    6 B(2,1,4)        =    108.664199     0.000006     0.075226   108.739425
	    7 B(2,1,5)        =    108.624484     0.000018     0.135428   108.759912
	    8 B(3,1,4)        =    108.608933     0.000022     0.151369   108.760302
	    9 B(3,1,5)        =    108.601673     0.000027     0.175147   108.776819
	   10 B(4,1,5)        =    108.545763     0.000184     0.584900   109.130663
	 ---------------------------------------------------------------------------
	Successfully symmetrized geometry.

  ==> Convergence Check <==

  Measures of convergence in internal coordinates in au.
  Criteria marked as inactive (o), active & met (*), and active & unmet ( ).
  --------------------------------------------------------------------------------------------- ~
   Step     Total Energy     Delta E     MAX Force     RMS Force      MAX Disp      RMS Disp    ~
  --------------------------------------------------------------------------------------------- ~
    Convergence Criteria    1.00e-06 *    3.00e-04 *             o    1.20e-03 *             o  ~
  --------------------------------------------------------------------------------------------- ~
      1    -238.38988683   -2.38e+02      4.10e-03      2.25e-03 o    1.86e-02      8.55e-03 o  ~
  ---------------------------------------------------------------------------------------------

	Writing optimization data to binary file.
	Structure for next step:
	Cartesian Geometry (in Angstrom)
	    C    -0.3203854098   0.0621285914  -0.4485394558
	    H    -0.6680780493   1.0252291817  -0.8114991742
	    H    -0.6681999885  -0.7653871151  -1.0604176144
	    F     1.0436533596   0.0617621623  -0.4445505792
	    F    -0.7711924183  -0.1148784983   0.8266275156
			--------------------------
			 OPTKING Finished Execution 
			--------------------------

    Structure for next step:
    Molecular point group: c1
    Full point group: C1

    Geometry (in Angstrom), charge = 0, multiplicity = 1:

    C           -0.320096315610     0.062161413175    -0.448343612381
    H           -0.667788956531     1.025262007309    -0.811303332152
    H           -0.667910895733    -0.765354296530    -1.060221773385
    F            1.043942459189     0.061794984108    -0.444354735694
    F           -0.770903325871    -0.114845677182     0.826823364038


Scratch directory: /tmp/
gradient() will perform analytic gradient computation.
    SCF Algorithm Type (re)set to DF.

*** tstart() called on d32cepyc045.crc.nd.edu
*** at Mon Jan  2 17:56:54 2023

   => Loading Basis Set <=

    Name: 6-31G**
    Role: ORBITAL
    Keyword: BASIS
    atoms 1   entry C          line   115 file /afs/crc.nd.edu/user/b/bagbodek/psi4conda/share/psi4/basis/6-31gss.gbs 
    atoms 2-3 entry H          line    44 file /afs/crc.nd.edu/user/b/bagbodek/psi4conda/share/psi4/basis/6-31gss.gbs 
    atoms 4-5 entry F          line   166 file /afs/crc.nd.edu/user/b/bagbodek/psi4conda/share/psi4/basis/6-31gss.gbs 


         ---------------------------------------------------------
                                   SCF
               by Justin Turney, Rob Parrish, Andy Simmonett
                          and Daniel G. A. Smith
                              RHF Reference
                        1 Threads,   1907 MiB Core
         ---------------------------------------------------------

  ==> Geometry <==

    Molecular point group: c1
    Full point group: C1

    Geometry (in Angstrom), charge = 0, multiplicity = 1:

       Center              X                  Y                   Z               Mass       
    ------------   -----------------  -----------------  -----------------  -----------------
         C           -0.320096315610     0.062161413175    -0.448343612381    12.000000000000
         H           -0.667788956531     1.025262007309    -0.811303332152     1.007825032230
         H           -0.667910895733    -0.765354296530    -1.060221773385     1.007825032230
         F            1.043942459189     0.061794984108    -0.444354735694    18.998403162730
         F           -0.770903325871    -0.114845677182     0.826823364038    18.998403162730

  Running in c1 symmetry.

  Rotational constants: A =      1.65962  B =      0.34701  C =      0.30405 [cm^-1]
  Rotational constants: A =  49754.19494  B =  10402.98232  C =   9115.14525 [MHz]
  Nuclear repulsion =   76.852530394911454

  Charge       = 0
  Multiplicity = 1
  Electrons    = 26
  Nalpha       = 13
  Nbeta        = 13

  ==> Algorithm <==

  SCF Algorithm Type is DF.
  DIIS enabled.
  MOM disabled.
  Fractional occupation disabled.
  Guess Type is READ.
  Energy threshold   = 1.00e-10
  Density threshold  = 1.00e-10
  Integral threshold = 1.00e-12

  ==> Primary Basis <==

  Basis Set: 6-31G**
    Blend: 6-31G**
    Number of shells: 24
    Number of basis functions: 55
    Number of Cartesian functions: 55
    Spherical Harmonics?: false
    Max angular momentum: 2

   => Loading Basis Set <=

    Name: (6-31G** AUX)
    Role: JKFIT
    Keyword: DF_BASIS_SCF
    atoms 1   entry C          line   121 file /afs/crc.nd.edu/user/b/bagbodek/psi4conda/share/psi4/basis/cc-pvdz-jkfit.gbs 
    atoms 2-3 entry H          line    51 file /afs/crc.nd.edu/user/b/bagbodek/psi4conda/share/psi4/basis/cc-pvdz-jkfit.gbs 
    atoms 4-5 entry F          line   271 file /afs/crc.nd.edu/user/b/bagbodek/psi4conda/share/psi4/basis/cc-pvdz-jkfit.gbs 

   => Loading Basis Set <=

    Name: 6-31G**
    Role: ORBITAL
    Keyword: BASIS
    atoms 1   entry C          line   115 file /afs/crc.nd.edu/user/b/bagbodek/psi4conda/share/psi4/basis/6-31gss.gbs 
    atoms 2-3 entry H          line    44 file /afs/crc.nd.edu/user/b/bagbodek/psi4conda/share/psi4/basis/6-31gss.gbs 
    atoms 4-5 entry F          line   166 file /afs/crc.nd.edu/user/b/bagbodek/psi4conda/share/psi4/basis/6-31gss.gbs 

  Reading orbitals from file /tmp/Psi4_R32_273K_output.ch2f2.612911.180.npy, no projection.

  ==> Integral Setup <==

  DFHelper Memory: AOs need 0.008 GiB; user supplied 1.397 GiB. Using in-core AOs.

  ==> MemDFJK: Density-Fitted J/K Matrices <==

    J tasked:                   Yes
    K tasked:                   Yes
    wK tasked:                   No
    OpenMP threads:               1
    Memory [MiB]:              1430
    Algorithm:                 Core
    Schwarz Cutoff:           1E-12
    Mask sparsity (%):       0.0661
    Fitting Condition:        1E-10

   => Auxiliary Basis Set <=

  Basis Set: (6-31G** AUX)
    Blend: CC-PVDZ-JKFIT
    Number of shells: 90
    Number of basis functions: 293
    Number of Cartesian functions: 293
    Spherical Harmonics?: false
    Max angular momentum: 3

  Minimum eigenvalue in the overlap matrix is 4.3566042561E-03.
  Reciprocal condition number of the overlap matrix is 7.3960267200E-04.
    Using symmetric orthogonalization.

  ==> Pre-Iterations <==

  SCF Guess: Orbitals guess was supplied from a previous computation.

   -------------------------------------------------------
    Irrep   Nso     Nmo     Nalpha   Nbeta   Ndocc  Nsocc
   -------------------------------------------------------
     A         55      55      13      13      13       0
   -------------------------------------------------------
    Total      55      55      13      13      13       0
   -------------------------------------------------------

  ==> Iterations <==

                           Total Energy        Delta E     RMS |[F,P]|

   @DF-RHF iter   0:  -237.90536413591590   -2.37905e+02   2.78879e-04 
   @DF-RHF iter   1:  -237.89830653925236    7.05760e-03   4.61007e-05 DIIS
   @DF-RHF iter   2:  -237.89831080542072   -4.26617e-06   1.73208e-05 DIIS
   @DF-RHF iter   3:  -237.89831144108859   -6.35668e-07   6.91443e-06 DIIS
   @DF-RHF iter   4:  -237.89831161366152   -1.72573e-07   1.38918e-06 DIIS
   @DF-RHF iter   5:  -237.89831161867116   -5.00964e-09   5.69256e-07 DIIS
   @DF-RHF iter   6:  -237.89831161914694   -4.75779e-10   6.50350e-08 DIIS
   @DF-RHF iter   7:  -237.89831161915799   -1.10560e-11   9.12234e-09 DIIS
   @DF-RHF iter   8:  -237.89831161915887   -8.81073e-13   1.97842e-09 DIIS
   @DF-RHF iter   9:  -237.89831161915868    1.98952e-13   5.65296e-10 DIIS
   @DF-RHF iter  10:  -237.89831161915851    1.70530e-13   2.44733e-10 DIIS
   @DF-RHF iter  11:  -237.89831161915828    2.27374e-13   6.16799e-11 DIIS
  Energy and wave function converged.


  ==> Post-Iterations <==

    Orbital Energies [Eh]
    ---------------------

    Doubly Occupied:                                                      

       1A    -26.307221     2A    -26.307187     3A    -11.406402  
       4A     -1.646464     5A     -1.588464     6A     -0.964567  
       7A     -0.767338     8A     -0.757221     9A     -0.741156  
      10A     -0.654168    11A     -0.619520    12A     -0.610995  
      13A     -0.530156  

    Virtual:                                                              

      14A      0.249929    15A      0.308505    16A      0.309388  
      17A      0.365716    18A      0.716445    19A      0.742054  
      20A      0.793844    21A      0.956692    22A      1.034297  
      23A      1.095718    24A      1.341267    25A      1.386554  
      26A      1.422317    27A      1.450890    28A      1.662581  
      29A      1.663470    30A      1.691633    31A      1.704007  
      32A      1.940503    33A      2.047945    34A      2.048076  
      35A      2.093458    36A      2.150037    37A      2.269874  
      38A      2.272274    39A      2.301040    40A      2.323026  
      41A      2.327846    42A      2.344876    43A      2.364023  
      44A      2.881347    45A      2.900028    46A      2.919369  
      47A      3.146052    48A      3.195965    49A      3.362320  
      50A      3.373106    51A      3.604933    52A      3.746566  
      53A      4.412296    54A      4.755985    55A      4.777286  

    Final Occupation by Irrep:
              A 
    DOCC [    13 ]

  @DF-RHF Final Energy:  -237.89831161915828

   => Energetics <=

    Nuclear Repulsion Energy =             76.8525303949114544
    One-Electron Energy =                -483.6999652576994322
    Two-Electron Energy =                 168.9491232436296855
    Total Energy =                       -237.8983116191582781

Computation Completed


Properties will be evaluated at   0.000000,   0.000000,   0.000000 [a0]

Properties computed using the SCF density matrix


 Multipole Moments:

 ------------------------------------------------------------------------------------
     Multipole            Electronic (a.u.)      Nuclear  (a.u.)        Total (a.u.)
 ------------------------------------------------------------------------------------

 L = 1.  Multiply by 2.5417464519 to convert [e a0] to [Debye]
 Dipole X            :          1.0178302           -1.5097505           -0.4919202
 Dipole Y            :         -0.1982130            0.2937011            0.0954882
 Dipole Z            :          1.4263045           -2.1153011           -0.6889965
 Magnitude           :                                                    0.8519506

 ------------------------------------------------------------------------------------

*** tstop() called on d32cepyc045.crc.nd.edu at Mon Jan  2 17:56:54 2023
Module time:
	user time   =       0.27 seconds =       0.00 minutes
	system time =       0.00 seconds =       0.00 minutes
	total time  =          0 seconds =       0.00 minutes
Total time:
	user time   =       1.58 seconds =       0.03 minutes
	system time =       0.05 seconds =       0.00 minutes
	total time  =          2 seconds =       0.03 minutes

*** tstart() called on d32cepyc045.crc.nd.edu
*** at Mon Jan  2 17:56:54 2023


  //>>>>>>>>>>>>>>>>>>>>>>>>>>>>>>>>>>>//
  //               DFMP2               //
  //<<<<<<<<<<<<<<<<<<<<<<<<<<<<<<<<<<<//

   => Loading Basis Set <=

    Name: (6-31G** AUX)
    Role: RIFIT
    Keyword: DF_BASIS_MP2
    atoms 1   entry C          line   159 file /afs/crc.nd.edu/user/b/bagbodek/psi4conda/share/psi4/basis/cc-pvdz-ri.gbs 
    atoms 2-3 entry H          line    19 file /afs/crc.nd.edu/user/b/bagbodek/psi4conda/share/psi4/basis/cc-pvdz-ri.gbs 
    atoms 4-5 entry F          line   273 file /afs/crc.nd.edu/user/b/bagbodek/psi4conda/share/psi4/basis/cc-pvdz-ri.gbs 

	 --------------------------------------------------------
	                          DF-MP2                         
	      2nd-Order Density-Fitted Moller-Plesset Theory     
	              RMP2 Wavefunction,   1 Threads             
	                                                         
	        Rob Parrish, Justin Turney, Andy Simmonett,      
	           Ed Hohenstein, and C. David Sherrill          
	 --------------------------------------------------------

   => Auxiliary Basis Set <=

  Basis Set: (6-31G** AUX)
    Blend: CC-PVDZ-RI
    Number of shells: 66
    Number of basis functions: 196
    Number of Cartesian functions: 228
    Spherical Harmonics?: true
    Max angular momentum: 3

	 --------------------------------------------------------
	                 NBF =    55, NAUX =   196
	 --------------------------------------------------------
	   CLASS    FOCC     OCC    AOCC    AVIR     VIR    FVIR
	   PAIRS       0      13      13      42      42       0
	 --------------------------------------------------------

  DFHelper Memory: AOs need 0.008 GiB; user supplied 1.397 GiB. Using in-core AOs.


         ------------------------------------------------------------
                                     CPHF                           
                                  Rob Parrish                       
         ------------------------------------------------------------

  ==> Geometry <==

    Molecular point group: c1
    Full point group: C1

    Geometry (in Angstrom), charge = 0, multiplicity = 1:

       Center              X                  Y                   Z               Mass       
    ------------   -----------------  -----------------  -----------------  -----------------
         C           -0.320096315610     0.062161413175    -0.448343612381    12.000000000000
         H           -0.667788956531     1.025262007309    -0.811303332152     1.007825032230
         H           -0.667910895733    -0.765354296530    -1.060221773385     1.007825032230
         F            1.043942459189     0.061794984108    -0.444354735694    18.998403162730
         F           -0.770903325871    -0.114845677182     0.826823364038    18.998403162730

  Nuclear repulsion =   76.852530394911454
  Reference energy  = -237.898311619158278

  ==> Basis Set <==

  Basis Set: 6-31G**
    Blend: 6-31G**
    Number of shells: 24
    Number of basis functions: 55
    Number of Cartesian functions: 55
    Spherical Harmonics?: false
    Max angular momentum: 2

  ==> CGRSolver (by Rob Parrish) <==

   Number of roots    =         1
   Preconditioning    =    JACOBI
   Convergence cutoff =     1E-06
   Maximum iterations =       100

  ==> CPHFRHamiltonian (by Rob Parrish) <== 

  ==> MemDFJK: Density-Fitted J/K Matrices <==

    J tasked:                   Yes
    K tasked:                   Yes
    wK tasked:                   No
    OpenMP threads:               1
    Memory [MiB]:              1430
    Algorithm:                 Core
    Schwarz Cutoff:           1E-12
    Mask sparsity (%):       0.0661
    Fitting Condition:        1E-10

   => Auxiliary Basis Set <=

  Basis Set: (6-31G** AUX)
    Blend: CC-PVDZ-JKFIT
    Number of shells: 90
    Number of basis functions: 293
    Number of Cartesian functions: 293
    Spherical Harmonics?: false
    Max angular momentum: 3

  ==> CPHF Iterations <==

  => Iterations <=

             Iter  Converged  Remaining    Residual
  CGR           1          0          1   9.572E-02
  CGR           2          0          1   1.442E-02
  CGR           3          0          1   4.881E-03
  CGR           4          0          1   1.080E-03
  CGR           5          0          1   1.592E-04
  CGR           6          0          1   2.736E-05
  CGR           7          0          1   4.571E-06
  CGR           8          1          0   6.649E-07

    CGRSolver converged.

  ==> DFCorrGrad: Density-Fitted Correlated Gradients <==

    OpenMP threads:              1
    Integrals threads:           1
    Memory [GiB]:            1.397
    Schwarz Cutoff:          0E+00
    Fitting Condition:       1E-10

   => Auxiliary Basis Set <=

  Basis Set: (6-31G** AUX)
    Blend: CC-PVDZ-JKFIT
    Number of shells: 90
    Number of basis functions: 293
    Number of Cartesian functions: 293
    Spherical Harmonics?: false
    Max angular momentum: 3

	-----------------------------------------------------------
	 ==================> DF-MP2 Energies <==================== 
	-----------------------------------------------------------
	 Reference Energy          =    -237.8983116191582781 [Eh]
	 Singles Energy            =      -0.0000000000000000 [Eh]
	 Same-Spin Energy          =      -0.1302391479092841 [Eh]
	 Opposite-Spin Energy      =      -0.3614174966138834 [Eh]
	 Correlation Energy        =      -0.4916566445231675 [Eh]
	 Total Energy              =    -238.3899682636814532 [Eh]
	-----------------------------------------------------------
	 ================> DF-SCS-MP2 Energies <================== 
	-----------------------------------------------------------
	 SCS Same-Spin Scale       =       0.3333333333333333 [-]
	 SCS Opposite-Spin Scale   =       1.2000000000000000 [-]
	 SCS Same-Spin Energy      =      -0.0434130493030947 [Eh]
	 SCS Opposite-Spin Energy  =      -0.4337009959366601 [Eh]
	 SCS Correlation Energy    =      -0.4771140452397548 [Eh]
	 SCS Total Energy          =    -238.3754256643980227 [Eh]
	-----------------------------------------------------------


  -Total Gradient:
     Atom            X                  Y                   Z
    ------   -----------------  -----------------  -----------------
       1       -0.000457143860    -0.000012803983    -0.000580122152
       2        0.000181691177    -0.000423873003     0.000143723315
       3        0.000157668527     0.000401999325     0.000233349989
       4        0.000792647622     0.000094639208    -0.000439239532
       5       -0.000674863466    -0.000059961546     0.000642288380


*** tstop() called on d32cepyc045.crc.nd.edu at Mon Jan  2 17:56:54 2023
Module time:
	user time   =       0.43 seconds =       0.01 minutes
	system time =       0.02 seconds =       0.00 minutes
	total time  =          0 seconds =       0.00 minutes
Total time:
	user time   =       2.01 seconds =       0.03 minutes
	system time =       0.07 seconds =       0.00 minutes
	total time  =          2 seconds =       0.03 minutes

			-----------------------------------------
			 OPTKING 2.0: for geometry optimizations 
			  - R.A. King,  Bethel University        
			-----------------------------------------

	Previous internal coordinate definitions found.
	---Fragment 1 Geometry and Gradient---
	 C          -0.6048943703        0.1174680465       -0.8472466375
	 H          -1.2619382374        1.9374644007       -1.5331411024
	 H          -1.2621686691       -1.4463100094       -2.0035287839
	 F           1.9727653386        0.1167755959       -0.8397087530
	 F          -1.4567961551       -0.2170268766        1.5624697122
	            -0.0004571439       -0.0000128040       -0.0005801222
	             0.0001816912       -0.0004238730        0.0001437233
	             0.0001576685        0.0004019993        0.0002333500
	             0.0007926476        0.0000946392       -0.0004392395
	            -0.0006748635       -0.0000599615        0.0006422884

	---Fragment 1 Intrafragment Coordinates---
	 - Coordinate -           - BOHR/RAD -       - ANG/DEG -
	 R(1,2)           =         2.052936	       1.086367
	 R(1,3)           =         2.052900	       1.086348
	 R(1,4)           =         2.577671	       1.364045
	 R(1,5)           =         2.577665	       1.364042
	 B(2,1,3)         =         1.965632	     112.622427
	 B(2,1,4)         =         1.897861	     108.739425
	 B(2,1,5)         =         1.898219	     108.759912
	 B(3,1,4)         =         1.898225	     108.760302
	 B(3,1,5)         =         1.898514	     108.776819
	 B(4,1,5)         =         1.904689	     109.130663

	Current energy   :      -238.3899682637

	Energy change for the previous step:
		Projected    :        -0.0001267277
		Actual       :        -0.0000814359

	Performing BFGS update.
	Previous computed or guess Hessian on step 1.
	Steps to be used in Hessian update: 1
	Taking RFO optimization step.
	Going to follow RFO solution 1.
	Using RFO vector 1.
	Norm of target step-size    0.00454
	Projected energy change by RFO approximation:        -0.0000045197

	Back-transformation to cartesian coordinates...
	Successfully converged to displaced geometry.

	--- Internal Coordinate Step in ANG or DEG, aJ/ANG or AJ/DEG ---
	 ---------------------------------------------------------------------------
	   Coordinate                Previous        Force       Change         New 
	   ----------                --------       ------       ------       ------
	    1 R(1,2)          =      1.086367     0.003971     0.000508     1.086875
	    2 R(1,3)          =      1.086348     0.004022     0.000481     1.086829
	    3 R(1,4)          =      1.364045    -0.006520    -0.000804     1.363241
	    4 R(1,5)          =      1.364042    -0.006849    -0.000834     1.363207
	    5 B(2,1,3)        =    112.622427     0.000017     0.017204   112.639631
	    6 B(2,1,4)        =    108.739425     0.000020     0.067548   108.806973
	    7 B(2,1,5)        =    108.759912     0.000014     0.044102   108.804014
	    8 B(3,1,4)        =    108.760302     0.000012     0.038141   108.798443
	    9 B(3,1,5)        =    108.776819     0.000007     0.017636   108.794455
	   10 B(4,1,5)        =    109.130663    -0.000073    -0.193889   108.936774
	 ---------------------------------------------------------------------------
	Successfully symmetrized geometry.

  ==> Convergence Check <==

  Measures of convergence in internal coordinates in au.
  Criteria marked as inactive (o), active & met (*), and active & unmet ( ).
  ---------------------------------------------------------------------------------------------
   Step     Total Energy     Delta E     MAX Force     RMS Force      MAX Disp      RMS Disp   
  ---------------------------------------------------------------------------------------------
    Convergence Criteria    1.00e-06 *    3.00e-04 *             o    1.20e-03 *             o
  ---------------------------------------------------------------------------------------------
      2    -238.38996826   -8.14e-05      9.61e-04      5.38e-04 o    3.38e-03      1.44e-03 o  ~
  ---------------------------------------------------------------------------------------------

	Writing optimization data to binary file.
	Structure for next step:
	Cartesian Geometry (in Angstrom)
	    C    -0.3203088368   0.0623600499  -0.4487899159
	    H    -0.6683341796   1.0258937482  -0.8118019205
	    H    -0.6682732004  -0.7657474481  -1.0606356635
	    F     1.0429168710   0.0613988585  -0.4424555217
	    F    -0.7687576833  -0.1148867787   0.8262829397
			--------------------------
			 OPTKING Finished Execution 
			--------------------------

    Structure for next step:
    Molecular point group: c1
    Full point group: C1

    Geometry (in Angstrom), charge = 0, multiplicity = 1:

    C           -0.320651339883     0.062469303193    -0.449165588637
    H           -0.668676684031     1.026003005280    -0.812177594720
    H           -0.668615704826    -0.765638198023    -1.061011338699
    F            1.042574373249     0.061508111774    -0.442831194486
    F           -0.769100188130    -0.114777526045     0.825907271907


Scratch directory: /tmp/
gradient() will perform analytic gradient computation.
    SCF Algorithm Type (re)set to DF.

*** tstart() called on d32cepyc045.crc.nd.edu
*** at Mon Jan  2 17:56:54 2023

   => Loading Basis Set <=

    Name: 6-31G**
    Role: ORBITAL
    Keyword: BASIS
    atoms 1   entry C          line   115 file /afs/crc.nd.edu/user/b/bagbodek/psi4conda/share/psi4/basis/6-31gss.gbs 
    atoms 2-3 entry H          line    44 file /afs/crc.nd.edu/user/b/bagbodek/psi4conda/share/psi4/basis/6-31gss.gbs 
    atoms 4-5 entry F          line   166 file /afs/crc.nd.edu/user/b/bagbodek/psi4conda/share/psi4/basis/6-31gss.gbs 


         ---------------------------------------------------------
                                   SCF
               by Justin Turney, Rob Parrish, Andy Simmonett
                          and Daniel G. A. Smith
                              RHF Reference
                        1 Threads,   1907 MiB Core
         ---------------------------------------------------------

  ==> Geometry <==

    Molecular point group: c1
    Full point group: C1

    Geometry (in Angstrom), charge = 0, multiplicity = 1:

       Center              X                  Y                   Z               Mass       
    ------------   -----------------  -----------------  -----------------  -----------------
         C           -0.320651339883     0.062469303193    -0.449165588637    12.000000000000
         H           -0.668676684031     1.026003005280    -0.812177594720     1.007825032230
         H           -0.668615704826    -0.765638198023    -1.061011338699     1.007825032230
         F            1.042574373249     0.061508111774    -0.442831194486    18.998403162730
         F           -0.769100188130    -0.114777526045     0.825907271907    18.998403162730

  Running in c1 symmetry.

  Rotational constants: A =      1.65511  B =      0.34821  C =      0.30484 [cm^-1]
  Rotational constants: A =  49618.82772  B =  10438.96813  C =   9138.78429 [MHz]
  Nuclear repulsion =   76.908864980103502

  Charge       = 0
  Multiplicity = 1
  Electrons    = 26
  Nalpha       = 13
  Nbeta        = 13

  ==> Algorithm <==

  SCF Algorithm Type is DF.
  DIIS enabled.
  MOM disabled.
  Fractional occupation disabled.
  Guess Type is READ.
  Energy threshold   = 1.00e-10
  Density threshold  = 1.00e-10
  Integral threshold = 1.00e-12

  ==> Primary Basis <==

  Basis Set: 6-31G**
    Blend: 6-31G**
    Number of shells: 24
    Number of basis functions: 55
    Number of Cartesian functions: 55
    Spherical Harmonics?: false
    Max angular momentum: 2

   => Loading Basis Set <=

    Name: (6-31G** AUX)
    Role: JKFIT
    Keyword: DF_BASIS_SCF
    atoms 1   entry C          line   121 file /afs/crc.nd.edu/user/b/bagbodek/psi4conda/share/psi4/basis/cc-pvdz-jkfit.gbs 
    atoms 2-3 entry H          line    51 file /afs/crc.nd.edu/user/b/bagbodek/psi4conda/share/psi4/basis/cc-pvdz-jkfit.gbs 
    atoms 4-5 entry F          line   271 file /afs/crc.nd.edu/user/b/bagbodek/psi4conda/share/psi4/basis/cc-pvdz-jkfit.gbs 

   => Loading Basis Set <=

    Name: 6-31G**
    Role: ORBITAL
    Keyword: BASIS
    atoms 1   entry C          line   115 file /afs/crc.nd.edu/user/b/bagbodek/psi4conda/share/psi4/basis/6-31gss.gbs 
    atoms 2-3 entry H          line    44 file /afs/crc.nd.edu/user/b/bagbodek/psi4conda/share/psi4/basis/6-31gss.gbs 
    atoms 4-5 entry F          line   166 file /afs/crc.nd.edu/user/b/bagbodek/psi4conda/share/psi4/basis/6-31gss.gbs 

  Reading orbitals from file /tmp/Psi4_R32_273K_output.ch2f2.612911.180.npy, no projection.

  ==> Integral Setup <==

  DFHelper Memory: AOs need 0.008 GiB; user supplied 1.397 GiB. Using in-core AOs.

  ==> MemDFJK: Density-Fitted J/K Matrices <==

    J tasked:                   Yes
    K tasked:                   Yes
    wK tasked:                   No
    OpenMP threads:               1
    Memory [MiB]:              1430
    Algorithm:                 Core
    Schwarz Cutoff:           1E-12
    Mask sparsity (%):       0.0661
    Fitting Condition:        1E-10

   => Auxiliary Basis Set <=

  Basis Set: (6-31G** AUX)
    Blend: CC-PVDZ-JKFIT
    Number of shells: 90
    Number of basis functions: 293
    Number of Cartesian functions: 293
    Spherical Harmonics?: false
    Max angular momentum: 3

  Minimum eigenvalue in the overlap matrix is 4.3508363923E-03.
  Reciprocal condition number of the overlap matrix is 7.3840847695E-04.
    Using symmetric orthogonalization.

  ==> Pre-Iterations <==

  SCF Guess: Orbitals guess was supplied from a previous computation.

   -------------------------------------------------------
    Irrep   Nso     Nmo     Nalpha   Nbeta   Ndocc  Nsocc
   -------------------------------------------------------
     A         55      55      13      13      13       0
   -------------------------------------------------------
    Total      55      55      13      13      13       0
   -------------------------------------------------------

  ==> Iterations <==

                           Total Energy        Delta E     RMS |[F,P]|

   @DF-RHF iter   0:  -237.89921148944072   -2.37899e+02   9.12975e-05 
   @DF-RHF iter   1:  -237.89839410578659    8.17384e-04   1.23404e-05 DIIS
   @DF-RHF iter   2:  -237.89839449440441   -3.88618e-07   4.91075e-06 DIIS
   @DF-RHF iter   3:  -237.89839457369317   -7.92888e-08   1.95979e-06 DIIS
   @DF-RHF iter   4:  -237.89839458535943   -1.16663e-08   4.63012e-07 DIIS
   @DF-RHF iter   5:  -237.89839458568235   -3.22927e-10   1.26614e-07 DIIS
   @DF-RHF iter   6:  -237.89839458571288   -3.05249e-11   2.19695e-08 DIIS
   @DF-RHF iter   7:  -237.89839458571345   -5.68434e-13   4.60123e-09 DIIS
   @DF-RHF iter   8:  -237.89839458571416   -7.10543e-13   8.13019e-10 DIIS
   @DF-RHF iter   9:  -237.89839458571387    2.84217e-13   3.42587e-10 DIIS
   @DF-RHF iter  10:  -237.89839458571399   -1.13687e-13   9.73640e-11 DIIS
  Energy and wave function converged.


  ==> Post-Iterations <==

    Orbital Energies [Eh]
    ---------------------

    Doubly Occupied:                                                      

       1A    -26.307114     2A    -26.307099     3A    -11.406351  
       4A     -1.646971     5A     -1.588488     6A     -0.964433  
       7A     -0.767495     8A     -0.757660     9A     -0.741251  
      10A     -0.654094    11A     -0.619282    12A     -0.611158  
      13A     -0.529940  

    Virtual:                                                              

      14A      0.249856    15A      0.308546    16A      0.309196  
      17A      0.366638    18A      0.716728    19A      0.742347  
      20A      0.794345    21A      0.956356    22A      1.033964  
      23A      1.095409    24A      1.341308    25A      1.386157  
      26A      1.422935    27A      1.450698    28A      1.663240  
      29A      1.663488    30A      1.691834    31A      1.703606  
      32A      1.940236    33A      2.046901    34A      2.047016  
      35A      2.094182    36A      2.150746    37A      2.270517  
      38A      2.272232    39A      2.300911    40A      2.322875  
      41A      2.332195    42A      2.344213    43A      2.364614  
      44A      2.880617    45A      2.899094    46A      2.921258  
      47A      3.145966    48A      3.195829    49A      3.364145  
      50A      3.373163    51A      3.604007    52A      3.745818  
      53A      4.413156    54A      4.757999    55A      4.777048  

    Final Occupation by Irrep:
              A 
    DOCC [    13 ]

  @DF-RHF Final Energy:  -237.89839458571399

   => Energetics <=

    Nuclear Repulsion Energy =             76.9088649801035018
    One-Electron Energy =                -483.8118488379473092
    Two-Electron Energy =                 169.0045892721298344
    Total Energy =                       -237.8983945857139872

Computation Completed


Properties will be evaluated at   0.000000,   0.000000,   0.000000 [a0]

Properties computed using the SCF density matrix


 Multipole Moments:

 ------------------------------------------------------------------------------------
     Multipole            Electronic (a.u.)      Nuclear  (a.u.)        Total (a.u.)
 ------------------------------------------------------------------------------------

 L = 1.  Multiply by 2.5417464519 to convert [e a0] to [Debye]
 Dipole X            :          1.0193005           -1.5116538           -0.4923534
 Dipole Y            :         -0.1984176            0.2943360            0.0959184
 Dipole Z            :          1.4278154           -2.1174339           -0.6896185
 Magnitude           :                                                    0.8527520

 ------------------------------------------------------------------------------------

*** tstop() called on d32cepyc045.crc.nd.edu at Mon Jan  2 17:56:55 2023
Module time:
	user time   =       0.26 seconds =       0.00 minutes
	system time =       0.01 seconds =       0.00 minutes
	total time  =          1 seconds =       0.02 minutes
Total time:
	user time   =       2.31 seconds =       0.04 minutes
	system time =       0.08 seconds =       0.00 minutes
	total time  =          3 seconds =       0.05 minutes

*** tstart() called on d32cepyc045.crc.nd.edu
*** at Mon Jan  2 17:56:55 2023


  //>>>>>>>>>>>>>>>>>>>>>>>>>>>>>>>>>>>//
  //               DFMP2               //
  //<<<<<<<<<<<<<<<<<<<<<<<<<<<<<<<<<<<//

   => Loading Basis Set <=

    Name: (6-31G** AUX)
    Role: RIFIT
    Keyword: DF_BASIS_MP2
    atoms 1   entry C          line   159 file /afs/crc.nd.edu/user/b/bagbodek/psi4conda/share/psi4/basis/cc-pvdz-ri.gbs 
    atoms 2-3 entry H          line    19 file /afs/crc.nd.edu/user/b/bagbodek/psi4conda/share/psi4/basis/cc-pvdz-ri.gbs 
    atoms 4-5 entry F          line   273 file /afs/crc.nd.edu/user/b/bagbodek/psi4conda/share/psi4/basis/cc-pvdz-ri.gbs 

	 --------------------------------------------------------
	                          DF-MP2                         
	      2nd-Order Density-Fitted Moller-Plesset Theory     
	              RMP2 Wavefunction,   1 Threads             
	                                                         
	        Rob Parrish, Justin Turney, Andy Simmonett,      
	           Ed Hohenstein, and C. David Sherrill          
	 --------------------------------------------------------

   => Auxiliary Basis Set <=

  Basis Set: (6-31G** AUX)
    Blend: CC-PVDZ-RI
    Number of shells: 66
    Number of basis functions: 196
    Number of Cartesian functions: 228
    Spherical Harmonics?: true
    Max angular momentum: 3

	 --------------------------------------------------------
	                 NBF =    55, NAUX =   196
	 --------------------------------------------------------
	   CLASS    FOCC     OCC    AOCC    AVIR     VIR    FVIR
	   PAIRS       0      13      13      42      42       0
	 --------------------------------------------------------

  DFHelper Memory: AOs need 0.008 GiB; user supplied 1.397 GiB. Using in-core AOs.


         ------------------------------------------------------------
                                     CPHF                           
                                  Rob Parrish                       
         ------------------------------------------------------------

  ==> Geometry <==

    Molecular point group: c1
    Full point group: C1

    Geometry (in Angstrom), charge = 0, multiplicity = 1:

       Center              X                  Y                   Z               Mass       
    ------------   -----------------  -----------------  -----------------  -----------------
         C           -0.320651339883     0.062469303193    -0.449165588637    12.000000000000
         H           -0.668676684031     1.026003005280    -0.812177594720     1.007825032230
         H           -0.668615704826    -0.765638198023    -1.061011338699     1.007825032230
         F            1.042574373249     0.061508111774    -0.442831194486    18.998403162730
         F           -0.769100188130    -0.114777526045     0.825907271907    18.998403162730

  Nuclear repulsion =   76.908864980103502
  Reference energy  = -237.898394585713987

  ==> Basis Set <==

  Basis Set: 6-31G**
    Blend: 6-31G**
    Number of shells: 24
    Number of basis functions: 55
    Number of Cartesian functions: 55
    Spherical Harmonics?: false
    Max angular momentum: 2

  ==> CGRSolver (by Rob Parrish) <==

   Number of roots    =         1
   Preconditioning    =    JACOBI
   Convergence cutoff =     1E-06
   Maximum iterations =       100

  ==> CPHFRHamiltonian (by Rob Parrish) <== 

  ==> MemDFJK: Density-Fitted J/K Matrices <==

    J tasked:                   Yes
    K tasked:                   Yes
    wK tasked:                   No
    OpenMP threads:               1
    Memory [MiB]:              1430
    Algorithm:                 Core
    Schwarz Cutoff:           1E-12
    Mask sparsity (%):       0.0661
    Fitting Condition:        1E-10

   => Auxiliary Basis Set <=

  Basis Set: (6-31G** AUX)
    Blend: CC-PVDZ-JKFIT
    Number of shells: 90
    Number of basis functions: 293
    Number of Cartesian functions: 293
    Spherical Harmonics?: false
    Max angular momentum: 3

  ==> CPHF Iterations <==

  => Iterations <=

             Iter  Converged  Remaining    Residual
  CGR           1          0          1   9.562E-02
  CGR           2          0          1   1.440E-02
  CGR           3          0          1   4.869E-03
  CGR           4          0          1   1.078E-03
  CGR           5          0          1   1.588E-04
  CGR           6          0          1   2.731E-05
  CGR           7          0          1   4.588E-06
  CGR           8          1          0   7.207E-07

    CGRSolver converged.

  ==> DFCorrGrad: Density-Fitted Correlated Gradients <==

    OpenMP threads:              1
    Integrals threads:           1
    Memory [GiB]:            1.397
    Schwarz Cutoff:          0E+00
    Fitting Condition:       1E-10

   => Auxiliary Basis Set <=

  Basis Set: (6-31G** AUX)
    Blend: CC-PVDZ-JKFIT
    Number of shells: 90
    Number of basis functions: 293
    Number of Cartesian functions: 293
    Spherical Harmonics?: false
    Max angular momentum: 3

	-----------------------------------------------------------
	 ==================> DF-MP2 Energies <==================== 
	-----------------------------------------------------------
	 Reference Energy          =    -237.8983945857139872 [Eh]
	 Singles Energy            =      -0.0000000000000000 [Eh]
	 Same-Spin Energy          =      -0.1302216151485760 [Eh]
	 Opposite-Spin Energy      =      -0.3613556314525008 [Eh]
	 Correlation Energy        =      -0.4915772466010768 [Eh]
	 Total Energy              =    -238.3899718323150694 [Eh]
	-----------------------------------------------------------
	 ================> DF-SCS-MP2 Energies <================== 
	-----------------------------------------------------------
	 SCS Same-Spin Scale       =       0.3333333333333333 [-]
	 SCS Opposite-Spin Scale   =       1.2000000000000000 [-]
	 SCS Same-Spin Energy      =      -0.0434072050495253 [Eh]
	 SCS Opposite-Spin Energy  =      -0.4336267577430010 [Eh]
	 SCS Correlation Energy    =      -0.4770339627925263 [Eh]
	 SCS Total Energy          =    -238.3754285485065054 [Eh]
	-----------------------------------------------------------


  -Total Gradient:
     Atom            X                  Y                   Z
    ------   -----------------  -----------------  -----------------
       1       -0.000253493211     0.000061534959    -0.000341331717
       2        0.000059535092    -0.000126015835     0.000079216508
       3        0.000080171026     0.000111655382     0.000144083085
       4        0.000061464191    -0.000024573572     0.000070143416
       5        0.000052322902    -0.000022600933     0.000047888709


*** tstop() called on d32cepyc045.crc.nd.edu at Mon Jan  2 17:56:55 2023
Module time:
	user time   =       0.42 seconds =       0.01 minutes
	system time =       0.02 seconds =       0.00 minutes
	total time  =          0 seconds =       0.00 minutes
Total time:
	user time   =       2.73 seconds =       0.05 minutes
	system time =       0.10 seconds =       0.00 minutes
	total time  =          3 seconds =       0.05 minutes

			-----------------------------------------
			 OPTKING 2.0: for geometry optimizations 
			  - R.A. King,  Bethel University        
			-----------------------------------------

	Previous internal coordinate definitions found.
	---Fragment 1 Geometry and Gradient---
	 C          -0.6059432141        0.1180498743       -0.8487999475
	 H          -1.2636157993        1.9388646839       -1.5347932193
	 H          -1.2635005653       -1.4468465055       -2.0050208461
	 F           1.9701800309        0.1162334857       -0.8368296774
	 F          -1.4533887186       -0.2168980896        1.5607385489
	            -0.0002534932        0.0000615350       -0.0003413317
	             0.0000595351       -0.0001260158        0.0000792165
	             0.0000801710        0.0001116554        0.0001440831
	             0.0000614642       -0.0000245736        0.0000701434
	             0.0000523229       -0.0000226009        0.0000478887

	---Fragment 1 Intrafragment Coordinates---
	 - Coordinate -           - BOHR/RAD -       - ANG/DEG -
	 R(1,2)           =         2.053895	       1.086875
	 R(1,3)           =         2.053808	       1.086829
	 R(1,4)           =         2.576152	       1.363241
	 R(1,5)           =         2.576088	       1.363207
	 B(2,1,3)         =         1.965932	     112.639631
	 B(2,1,4)         =         1.899040	     108.806973
	 B(2,1,5)         =         1.898988	     108.804014
	 B(3,1,4)         =         1.898891	     108.798443
	 B(3,1,5)         =         1.898821	     108.794455
	 B(4,1,5)         =         1.901305	     108.936774

	Current energy   :      -238.3899718323

	Energy change for the previous step:
		Projected    :        -0.0000045197
		Actual       :        -0.0000035686
	Energy ratio indicates good step: Trust radius increased to 1.000e+00.


	Performing BFGS update.
	Previous computed or guess Hessian on step 1.
	Steps to be used in Hessian update: 2 1
	Taking RFO optimization step.
	Going to follow RFO solution 1.
	Using RFO vector 1.
	Norm of target step-size    0.00114
	Projected energy change by RFO approximation:        -0.0000002066

	Back-transformation to cartesian coordinates...
	Successfully converged to displaced geometry.

	--- Internal Coordinate Step in ANG or DEG, aJ/ANG or AJ/DEG ---
	 ---------------------------------------------------------------------------
	   Coordinate                Previous        Force       Change         New 
	   ----------                --------       ------       ------       ------
	    1 R(1,2)          =      1.086875     0.001295     0.000241     1.087116
	    2 R(1,3)          =      1.086829     0.001581     0.000288     1.087116
	    3 R(1,4)          =      1.363241    -0.000509    -0.000111     1.363130
	    4 R(1,5)          =      1.363207    -0.000251    -0.000081     1.363126
	    5 B(2,1,3)        =    112.639631    -0.000008    -0.034187   112.605444
	    6 B(2,1,4)        =    108.806973    -0.000003    -0.008060   108.798913
	    7 B(2,1,5)        =    108.804014    -0.000002    -0.003488   108.800526
	    8 B(3,1,4)        =    108.798443    -0.000000     0.005648   108.804091
	    9 B(3,1,5)        =    108.794455     0.000001     0.011370   108.805826
	   10 B(4,1,5)        =    108.936774     0.000013     0.030878   108.967652
	 ---------------------------------------------------------------------------
	Successfully symmetrized geometry.

  ==> Convergence Check <==

  Measures of convergence in internal coordinates in au.
  Criteria marked as inactive (o), active & met (*), and active & unmet ( ).
  ---------------------------------------------------------------------------------------------
   Step     Total Energy     Delta E     MAX Force     RMS Force      MAX Disp      RMS Disp   
  ---------------------------------------------------------------------------------------------
    Convergence Criteria    1.00e-06 *    3.00e-04 *             o    1.20e-03 *             o
  ---------------------------------------------------------------------------------------------
      3    -238.38997183   -3.57e-06      1.92e-04 *    1.03e-04 o    5.97e-04 *    3.59e-04 o  ~
  ---------------------------------------------------------------------------------------------


  **** Optimization is complete! (in 3 steps) ****

  ==> Optimization Summary <==

  Measures of convergence in internal coordinates in au.
  --------------------------------------------------------------------------------------------------------------- ~
   Step         Total Energy             Delta E       MAX Force       RMS Force        MAX Disp        RMS Disp  ~
  --------------------------------------------------------------------------------------------------------------- ~
      1    -238.389886827755   -238.389886827755      0.00409502      0.00225136      0.01856038      0.00855086  ~
      2    -238.389968263681     -0.000081435927      0.00096132      0.00053796      0.00338400      0.00143534  ~
      3    -238.389971832315     -0.000003568634      0.00019186      0.00010326      0.00059668      0.00035914  ~
  --------------------------------------------------------------------------------------------------------------- ~

	Writing optimization data to binary file.
	Final energy is   -238.3899718323151
	Final (previous) structure:
	Cartesian Geometry (in Angstrom)
	    C    -0.3206513386   0.0624693029  -0.4491655869
	    H    -0.6686766814   1.0260030012  -0.8121775915
	    H    -0.6686157022  -0.7656381950  -1.0610113345
	    F     1.0425743692   0.0615081115  -0.4428311927
	    F    -0.7691001851  -0.1147775256   0.8259072687
	Saving final (previous) structure.
	Cleaning optimization helper files.
			--------------------------
			 OPTKING Finished Execution 
			--------------------------

    Final optimized geometry and variables:
    Molecular point group: c1
    Full point group: C1

    Geometry (in Angstrom), charge = 0, multiplicity = 1:

    C           -0.320651339883     0.062469303193    -0.449165588637
    H           -0.668676684031     1.026003005280    -0.812177594720
    H           -0.668615704826    -0.765638198023    -1.061011338699
    F            1.042574373249     0.061508111774    -0.442831194486
    F           -0.769100188130    -0.114777526045     0.825907271907

	Removing binary optimization data file.
	Cleaning optimization helper files.

         ----------------------------------------------------------
                                   FINDIF
                     R. A. King and Jonathon Misiewicz
         ----------------------------------------------------------

[...]


  ==> Harmonic Vibrational Analysis <==

  non-mass-weighted Hessian:       Symmetric? True   Hermitian? True   Lin Dep Dim?  3 (0)
  projection of translations (True) and rotations (True) removed 6 degrees of freedom (6)
  total projector:                 Symmetric? True   Hermitian? True   Lin Dep Dim?  6 (6)
  mass-weighted Hessian:           Symmetric? True   Hermitian? True   Lin Dep Dim?  3 (0)
  pre-proj  low-frequency mode:    0.0000i [cm^-1]
  pre-proj  low-frequency mode:    0.0000i [cm^-1]
  pre-proj  low-frequency mode:    0.0000i [cm^-1]
  pre-proj  low-frequency mode:    0.0000i [cm^-1]
  pre-proj  low-frequency mode:    0.0000  [cm^-1]
  pre-proj  low-frequency mode:    0.0000  [cm^-1]
  pre-proj  all modes:['19.0749i' '8.1598i' '2.6902i' '0.0000i' '0.0000' '0.0000' '524.9309'
 '1151.1418' '1165.4709' '1219.9890' '1310.7801' '1530.5208' '1614.9135'
 '3164.7468' '3250.5356']
  projected mass-weighted Hessian: Symmetric? True   Hermitian? True   Lin Dep Dim?  6 (6)
  post-proj low-frequency mode:    0.0000i [cm^-1] (TR)
  post-proj low-frequency mode:    0.0000i [cm^-1] (TR)
  post-proj low-frequency mode:    0.0000  [cm^-1] (TR)
  post-proj low-frequency mode:    0.0000  [cm^-1] (TR)
  post-proj low-frequency mode:    0.0000  [cm^-1] (TR)
  post-proj low-frequency mode:    0.0000  [cm^-1] (TR)
  post-proj  all modes:['0.0000i' '0.0000i' '0.0000' '0.0000' '0.0000' '0.0000' '524.9309'
 '1151.1418' '1165.4709' '1219.9887' '1310.7801' '1530.5208' '1614.9135'
 '3164.7468' '3250.5356']

  Vibration                       7                   8                   9           
  Freq [cm^-1]                 524.9309           1151.1418           1165.4709       
  Irrep                           A                   A                   A           
  Reduced mass [u]             12.3612              7.1188              6.3261        
  Force const [mDyne/A]         2.0068              5.5579              5.0628        
  Turning point v=0 [a0]        0.1362              0.1212              0.1278        
  RMS dev v=0 [a0 u^1/2]        0.3386              0.2287              0.2273        
  IR activ [km/mol]             7.2441             132.8593            246.7999       
  Char temp [K]                755.2586           1656.2368           1676.8531       
  ----------------------------------------------------------------------------------
      1   C               -0.21  0.04 -0.29    0.32 -0.06  0.44    0.43  0.04 -0.30   
      2   H               -0.23  0.04 -0.32    0.30 -0.07  0.42    0.44  0.04 -0.31   
      3   H               -0.23  0.05 -0.32    0.30 -0.05  0.42    0.44  0.04 -0.31   
      4   F               -0.34 -0.06  0.40   -0.28  0.01 -0.05   -0.25  0.00 -0.01   
      5   F                0.49  0.02 -0.18    0.05  0.04 -0.27   -0.07 -0.03  0.24   

  Vibration                       10                  11                  12          
  Freq [cm^-1]                1219.9887           1310.7801           1530.5208       
  Irrep                           A                   A                   A           
  Reduced mass [u]              1.5023              1.0414              1.2106        
  Force const [mDyne/A]         1.3174              1.0542              1.6709        
  Turning point v=0 [a0]        0.2563              0.2970              0.2549        
  RMS dev v=0 [a0 u^1/2]        0.2221              0.2143              0.1983        
  IR activ [km/mol]            29.3580              0.0000             49.1642        
  Char temp [K]               1755.2921           1885.9207           2202.0787       
  ----------------------------------------------------------------------------------
      1   C                0.00  0.19  0.03   -0.00  0.00  0.00   -0.11 -0.01  0.08   
      2   H               -0.38 -0.15 -0.56    0.58  0.06 -0.40    0.57  0.06 -0.40   
      3   H                0.38 -0.30  0.50   -0.58 -0.06  0.40    0.57  0.06 -0.40   
      4   F               -0.00 -0.05 -0.01    0.00  0.03  0.00   -0.01  0.00 -0.02   
      5   F                0.00 -0.05 -0.01    0.00 -0.03 -0.00    0.01 -0.00  0.01   

  Vibration                       13                  14                  15          
  Freq [cm^-1]                1614.9135           3164.7468           3250.5356       
  Irrep                           A                   A                   A           
  Reduced mass [u]              1.1051              1.0519              1.1194        
  Force const [mDyne/A]         1.6980              6.2073              6.9683        
  Turning point v=0 [a0]        0.2597              0.1902              0.1819        
  RMS dev v=0 [a0 u^1/2]        0.1931              0.1379              0.1361        
  IR activ [km/mol]             6.1010             45.3356             61.7069        
  Char temp [K]               2323.5010           4553.3660           4676.7970       
  ----------------------------------------------------------------------------------
      1   C               -0.05  0.01 -0.08    0.04 -0.01  0.05   -0.00 -0.10 -0.01   
      2   H                0.33  0.35  0.52   -0.22  0.63 -0.22   -0.22  0.63 -0.23   
      3   H                0.33 -0.48  0.40   -0.22 -0.55 -0.39    0.22  0.54  0.39   
      4   F               -0.00 -0.00  0.00    0.00  0.00 -0.00   -0.00  0.00  0.00   
      5   F                0.00  0.00 -0.00   -0.00 -0.00  0.00    0.00  0.00  0.00   

  ==> Thermochemistry Components <==

  Entropy, S
    Electronic S            0.000 [cal/(mol K)]        0.000 [J/(mol K)]       0.00000000 [mEh/K] (multiplicity = 1)
    Translational S        37.334 [cal/(mol K)]      156.207 [J/(mol K)]       0.05949616 [mEh/K] (mol. weight = 52.0125 [u], P = 101325.00 [Pa])
    Rotational S           21.484 [cal/(mol K)]       89.890 [J/(mol K)]       0.03423716 [mEh/K] (symmetry no. = 1)
    Vibrational S           0.611 [cal/(mol K)]        2.557 [J/(mol K)]       0.00097392 [mEh/K]
  Total S                  59.430 [cal/(mol K)]      248.654 [J/(mol K)]       0.09470723 [mEh/K]
  Correction S              0.000 [cal/(mol K)]        0.000 [J/(mol K)]       0.00000000 [mEh/K]

  Constant volume heat capacity, Cv
    Electronic Cv           0.000 [cal/(mol K)]        0.000 [J/(mol K)]       0.00000000 [mEh/K]
    Translational Cv        2.981 [cal/(mol K)]       12.472 [J/(mol K)]       0.00475022 [mEh/K]
    Rotational Cv           2.981 [cal/(mol K)]       12.472 [J/(mol K)]       0.00475022 [mEh/K]
    Vibrational Cv          1.721 [cal/(mol K)]        7.201 [J/(mol K)]       0.00274277 [mEh/K]
  Total Cv                  7.683 [cal/(mol K)]       32.145 [J/(mol K)]       0.01224321 [mEh/K]
  Correction Cv             0.000 [cal/(mol K)]        0.000 [J/(mol K)]       0.00000000 [mEh/K]

  Constant pressure heat capacity, Cp
    Electronic Cp           0.000 [cal/(mol K)]        0.000 [J/(mol K)]       0.00000000 [mEh/K]
    Translational Cp        4.968 [cal/(mol K)]       20.786 [J/(mol K)]       0.00791703 [mEh/K]
    Rotational Cp           2.981 [cal/(mol K)]       12.472 [J/(mol K)]       0.00475022 [mEh/K]
    Vibrational Cp          1.721 [cal/(mol K)]        7.201 [J/(mol K)]       0.00274277 [mEh/K]
  Total Cp                  9.670 [cal/(mol K)]       40.459 [J/(mol K)]       0.01541002 [mEh/K]
  Correction Cp             0.000 [cal/(mol K)]        0.000 [J/(mol K)]       0.00000000 [mEh/K]

  ==> Thermochemistry Energy Analysis <==

  Raw electronic energy, E0
  Total E0, Electronic energy at well bottom at 0 [K]                 -238.38997183 [Eh]

  Zero-point energy, ZPE_vib = Sum_i nu_i / 2
    Electronic ZPE          0.000 [kcal/mol]        0.000 [kJ/mol]       0.00000000 [Eh]
    Translational ZPE       0.000 [kcal/mol]        0.000 [kJ/mol]       0.00000000 [Eh]
    Rotational ZPE          0.000 [kcal/mol]        0.000 [kJ/mol]       0.00000000 [Eh]
    Vibrational ZPE        21.348 [kcal/mol]       89.319 [kJ/mol]       0.03401994 [Eh]        7466.514 [cm^-1]
  Correction ZPE           21.348 [kcal/mol]       89.319 [kJ/mol]       0.03401994 [Eh]        7466.514 [cm^-1]
  Total ZPE, Electronic energy at 0 [K]                               -238.35595189 [Eh]

  Thermal Energy, E (includes ZPE)
    Electronic E            0.000 [kcal/mol]        0.000 [kJ/mol]       0.00000000 [Eh]
    Translational E         0.814 [kcal/mol]        3.407 [kJ/mol]       0.00129752 [Eh]
    Rotational E            0.814 [kcal/mol]        3.407 [kJ/mol]       0.00129752 [Eh]
    Vibrational E          21.475 [kcal/mol]       89.853 [kJ/mol]       0.03422310 [Eh]
  Correction E             23.104 [kcal/mol]       96.666 [kJ/mol]       0.03681814 [Eh]
  Total E, Electronic energy at  273.15 [K]                           -238.35315369 [Eh]

  Enthalpy, H_trans = E_trans + k_B * T
    Electronic H            0.000 [kcal/mol]        0.000 [kJ/mol]       0.00000000 [Eh]
    Translational H         1.357 [kcal/mol]        5.678 [kJ/mol]       0.00216254 [Eh]
    Rotational H            0.814 [kcal/mol]        3.407 [kJ/mol]       0.00129752 [Eh]
    Vibrational H          21.475 [kcal/mol]       89.853 [kJ/mol]       0.03422310 [Eh]
  Correction H             23.647 [kcal/mol]       98.937 [kJ/mol]       0.03768316 [Eh]
  Total H, Enthalpy at  273.15 [K]                                    -238.35228867 [Eh]

  Gibbs free energy, G = H - T * S
    Electronic G            0.000 [kcal/mol]        0.000 [kJ/mol]       0.00000000 [Eh]
    Translational G        -8.841 [kcal/mol]      -36.990 [kJ/mol]      -0.01408884 [Eh]
    Rotational G           -5.054 [kcal/mol]      -21.147 [kJ/mol]      -0.00805436 [Eh]
    Vibrational G          21.308 [kcal/mol]       89.154 [kJ/mol]       0.03395708 [Eh]
  Correction G              7.413 [kcal/mol]       31.017 [kJ/mol]       0.01181388 [Eh]
  Total G, Free enthalpy at  273.15 [K]                               -238.37815795 [Eh]


  ==> Harmonic Vibrational Analysis <==

  non-mass-weighted Hessian:       Symmetric? True   Hermitian? True   Lin Dep Dim?  3 (0)
  projection of translations (True) and rotations (True) removed 6 degrees of freedom (6)
  total projector:                 Symmetric? True   Hermitian? True   Lin Dep Dim?  6 (6)
  mass-weighted Hessian:           Symmetric? True   Hermitian? True   Lin Dep Dim?  3 (0)
  pre-proj  low-frequency mode:    0.0000i [cm^-1]
  pre-proj  low-frequency mode:    0.0000i [cm^-1]
  pre-proj  low-frequency mode:    0.0000i [cm^-1]
  pre-proj  low-frequency mode:    0.0000i [cm^-1]
  pre-proj  low-frequency mode:    0.0000  [cm^-1]
  pre-proj  low-frequency mode:    0.0000  [cm^-1]
  pre-proj  all modes:['19.0749i' '8.1598i' '2.6902i' '0.0000i' '0.0000' '0.0000' '524.9309'
 '1151.1418' '1165.4709' '1219.9890' '1310.7801' '1530.5208' '1614.9135'
 '3164.7468' '3250.5356']
  projected mass-weighted Hessian: Symmetric? True   Hermitian? True   Lin Dep Dim?  6 (6)
  post-proj low-frequency mode:    0.0000i [cm^-1] (TR)
  post-proj low-frequency mode:    0.0000i [cm^-1] (TR)
  post-proj low-frequency mode:    0.0000  [cm^-1] (TR)
  post-proj low-frequency mode:    0.0000  [cm^-1] (TR)
  post-proj low-frequency mode:    0.0000  [cm^-1] (TR)
  post-proj low-frequency mode:    0.0000  [cm^-1] (TR)
  post-proj  all modes:['0.0000i' '0.0000i' '0.0000' '0.0000' '0.0000' '0.0000' '524.9309'
 '1151.1418' '1165.4709' '1219.9887' '1310.7801' '1530.5208' '1614.9135'
 '3164.7468' '3250.5356']

  Vibration                       7                   8                   9           
  Freq [cm^-1]                 524.9309           1151.1418           1165.4709       
  Irrep                           A                   A                   A           
  Reduced mass [u]             12.3612              7.1188              6.3261        
  Force const [mDyne/A]         2.0068              5.5579              5.0628        
  Turning point v=0 [a0]        0.1362              0.1212              0.1278        
  RMS dev v=0 [a0 u^1/2]        0.3386              0.2287              0.2273        
  IR activ [km/mol]             7.2441             132.8593            246.7999       
  Char temp [K]                755.2586           1656.2368           1676.8531       
  ----------------------------------------------------------------------------------
      1   C               -0.21  0.04 -0.29    0.32 -0.06  0.44    0.43  0.04 -0.30   
      2   H               -0.23  0.04 -0.32    0.30 -0.07  0.42    0.44  0.04 -0.31   
      3   H               -0.23  0.05 -0.32    0.30 -0.05  0.42    0.44  0.04 -0.31   
      4   F               -0.34 -0.06  0.40   -0.28  0.01 -0.05   -0.25  0.00 -0.01   
      5   F                0.49  0.02 -0.18    0.05  0.04 -0.27   -0.07 -0.03  0.24   

  Vibration                       10                  11                  12          
  Freq [cm^-1]                1219.9887           1310.7801           1530.5208       
  Irrep                           A                   A                   A           
  Reduced mass [u]              1.5023              1.0414              1.2106        
  Force const [mDyne/A]         1.3174              1.0542              1.6709        
  Turning point v=0 [a0]        0.2563              0.2970              0.2549        
  RMS dev v=0 [a0 u^1/2]        0.2221              0.2143              0.1983        
  IR activ [km/mol]            29.3580              0.0000             49.1642        
  Char temp [K]               1755.2921           1885.9207           2202.0787       
  ----------------------------------------------------------------------------------
      1   C                0.00  0.19  0.03   -0.00  0.00  0.00   -0.11 -0.01  0.08   
      2   H               -0.38 -0.15 -0.56    0.58  0.06 -0.40    0.57  0.06 -0.40   
      3   H                0.38 -0.30  0.50   -0.58 -0.06  0.40    0.57  0.06 -0.40   
      4   F               -0.00 -0.05 -0.01    0.00  0.03  0.00   -0.01  0.00 -0.02   
      5   F                0.00 -0.05 -0.01    0.00 -0.03 -0.00    0.01 -0.00  0.01   

  Vibration                       13                  14                  15          
  Freq [cm^-1]                1614.9135           3164.7468           3250.5356       
  Irrep                           A                   A                   A           
  Reduced mass [u]              1.1051              1.0519              1.1194        
  Force const [mDyne/A]         1.6980              6.2073              6.9683        
  Turning point v=0 [a0]        0.2597              0.1902              0.1819        
  RMS dev v=0 [a0 u^1/2]        0.1931              0.1379              0.1361        
  IR activ [km/mol]             6.1010             45.3356             61.7069        
  Char temp [K]               2323.5010           4553.3660           4676.7970       
  ----------------------------------------------------------------------------------
      1   C               -0.05  0.01 -0.08    0.04 -0.01  0.05   -0.00 -0.10 -0.01   
      2   H                0.33  0.35  0.52   -0.22  0.63 -0.22   -0.22  0.63 -0.23   
      3   H                0.33 -0.48  0.40   -0.22 -0.55 -0.39    0.22  0.54  0.39   
      4   F               -0.00 -0.00  0.00    0.00  0.00 -0.00   -0.00  0.00  0.00   
      5   F                0.00  0.00 -0.00   -0.00 -0.00  0.00    0.00  0.00  0.00   

  ==> Thermochemistry Components <==

  Entropy, S
    Electronic S            0.000 [cal/(mol K)]        0.000 [J/(mol K)]       0.00000000 [mEh/K] (multiplicity = 1)
    Translational S        37.334 [cal/(mol K)]      156.207 [J/(mol K)]       0.05949616 [mEh/K] (mol. weight = 52.0125 [u], P = 101325.00 [Pa])
    Rotational S           21.484 [cal/(mol K)]       89.890 [J/(mol K)]       0.03423716 [mEh/K] (symmetry no. = 1)
    Vibrational S           0.611 [cal/(mol K)]        2.557 [J/(mol K)]       0.00097392 [mEh/K]
  Total S                  59.430 [cal/(mol K)]      248.654 [J/(mol K)]       0.09470723 [mEh/K]
  Correction S              0.000 [cal/(mol K)]        0.000 [J/(mol K)]       0.00000000 [mEh/K]

  Constant volume heat capacity, Cv
    Electronic Cv           0.000 [cal/(mol K)]        0.000 [J/(mol K)]       0.00000000 [mEh/K]
    Translational Cv        2.981 [cal/(mol K)]       12.472 [J/(mol K)]       0.00475022 [mEh/K]
    Rotational Cv           2.981 [cal/(mol K)]       12.472 [J/(mol K)]       0.00475022 [mEh/K]
    Vibrational Cv          1.721 [cal/(mol K)]        7.201 [J/(mol K)]       0.00274277 [mEh/K]
  Total Cv                  7.683 [cal/(mol K)]       32.145 [J/(mol K)]       0.01224321 [mEh/K]
  Correction Cv             0.000 [cal/(mol K)]        0.000 [J/(mol K)]       0.00000000 [mEh/K]

  Constant pressure heat capacity, Cp
    Electronic Cp           0.000 [cal/(mol K)]        0.000 [J/(mol K)]       0.00000000 [mEh/K]
    Translational Cp        4.968 [cal/(mol K)]       20.786 [J/(mol K)]       0.00791703 [mEh/K]
    Rotational Cp           2.981 [cal/(mol K)]       12.472 [J/(mol K)]       0.00475022 [mEh/K]
    Vibrational Cp          1.721 [cal/(mol K)]        7.201 [J/(mol K)]       0.00274277 [mEh/K]
  Total Cp                  9.670 [cal/(mol K)]       40.459 [J/(mol K)]       0.01541002 [mEh/K]
  Correction Cp             0.000 [cal/(mol K)]        0.000 [J/(mol K)]       0.00000000 [mEh/K]

  ==> Thermochemistry Energy Analysis <==

  Raw electronic energy, E0
  Total E0, Electronic energy at well bottom at 0 [K]                 -238.38997183 [Eh]

  Zero-point energy, ZPE_vib = Sum_i nu_i / 2
    Electronic ZPE          0.000 [kcal/mol]        0.000 [kJ/mol]       0.00000000 [Eh]
    Translational ZPE       0.000 [kcal/mol]        0.000 [kJ/mol]       0.00000000 [Eh]
    Rotational ZPE          0.000 [kcal/mol]        0.000 [kJ/mol]       0.00000000 [Eh]
    Vibrational ZPE        21.348 [kcal/mol]       89.319 [kJ/mol]       0.03401994 [Eh]        7466.514 [cm^-1]
  Correction ZPE           21.348 [kcal/mol]       89.319 [kJ/mol]       0.03401994 [Eh]        7466.514 [cm^-1]
  Total ZPE, Electronic energy at 0 [K]                               -238.35595189 [Eh]

  Thermal Energy, E (includes ZPE)
    Electronic E            0.000 [kcal/mol]        0.000 [kJ/mol]       0.00000000 [Eh]
    Translational E         0.814 [kcal/mol]        3.407 [kJ/mol]       0.00129752 [Eh]
    Rotational E            0.814 [kcal/mol]        3.407 [kJ/mol]       0.00129752 [Eh]
    Vibrational E          21.475 [kcal/mol]       89.853 [kJ/mol]       0.03422310 [Eh]
  Correction E             23.104 [kcal/mol]       96.666 [kJ/mol]       0.03681814 [Eh]
  Total E, Electronic energy at  273.15 [K]                           -238.35315369 [Eh]

  Enthalpy, H_trans = E_trans + k_B * T
    Electronic H            0.000 [kcal/mol]        0.000 [kJ/mol]       0.00000000 [Eh]
    Translational H         1.357 [kcal/mol]        5.678 [kJ/mol]       0.00216254 [Eh]
    Rotational H            0.814 [kcal/mol]        3.407 [kJ/mol]       0.00129752 [Eh]
    Vibrational H          21.475 [kcal/mol]       89.853 [kJ/mol]       0.03422310 [Eh]
  Correction H             23.647 [kcal/mol]       98.937 [kJ/mol]       0.03768316 [Eh]
  Total H, Enthalpy at  273.15 [K]                                    -238.35228867 [Eh]

  Gibbs free energy, G = H - T * S
    Electronic G            0.000 [kcal/mol]        0.000 [kJ/mol]       0.00000000 [Eh]
    Translational G        -8.841 [kcal/mol]      -36.990 [kJ/mol]      -0.01408884 [Eh]
    Rotational G           -5.054 [kcal/mol]      -21.147 [kJ/mol]      -0.00805436 [Eh]
    Vibrational G          21.308 [kcal/mol]       89.154 [kJ/mol]       0.03395708 [Eh]
  Correction G              7.413 [kcal/mol]       31.017 [kJ/mol]       0.01181388 [Eh]
  Total G, Free enthalpy at  273.15 [K]                               -238.37815795 [Eh]

    Psi4 stopped on: Monday, 02 January 2023 05:57PM
    Psi4 wall time for execution: 0:00:28.03

*** Psi4 exiting successfully. Buy a developer a beer!
