
    -----------------------------------------------------------------------
          Psi4: An Open-Source Ab Initio Electronic Structure Package
                               Psi4 1.6.1 release

                         Git: Rev {HEAD} 5b9f6e3 


    D. G. A. Smith, L. A. Burns, A. C. Simmonett, R. M. Parrish,
    M. C. Schieber, R. Galvelis, P. Kraus, H. Kruse, R. Di Remigio,
    A. Alenaizan, A. M. James, S. Lehtola, J. P. Misiewicz, M. Scheurer,
    R. A. Shaw, J. B. Schriber, Y. Xie, Z. L. Glick, D. A. Sirianni,
    J. S. O'Brien, J. M. Waldrop, A. Kumar, E. G. Hohenstein,
    B. P. Pritchard, B. R. Brooks, H. F. Schaefer III, A. Yu. Sokolov,
    K. Patkowski, A. E. DePrince III, U. Bozkaya, R. A. King,
    F. A. Evangelista, J. M. Turney, T. D. Crawford, C. D. Sherrill,
    J. Chem. Phys. 152(18) 184108 (2020). https://doi.org/10.1063/5.0006002

                            Additional Code Authors
    E. T. Seidl, C. L. Janssen, E. F. Valeev, M. L. Leininger,
    J. F. Gonthier, R. M. Richard, H. R. McAlexander, M. Saitow, X. Wang,
    P. Verma, M. H. Lechner, and A. Jiang

             Previous Authors, Complete List of Code Contributors,
                       and Citations for Specific Modules
    https://github.com/psi4/psi4/blob/master/codemeta.json
    https://github.com/psi4/psi4/graphs/contributors
    http://psicode.org/psi4manual/master/introduction.html#citing-psifour

    -----------------------------------------------------------------------


    Psi4 started on: Monday, 02 January 2023 05:46PM

    Process ID: 2714632
    Host:       d32cepyc049.crc.nd.edu
    PSIDATADIR: /afs/crc.nd.edu/user/b/bagbodek/psi4conda/share/psi4
    Memory:     500.0 MiB
    Threads:    1
    
  ==> Input File <==

--------------------------------------------------------------------------
#! Vibrational and thermo analysis of r125.
memory 2000 mb

molecule c2hf5 {

  C     3.68000   -1.66200   -0.05900
  C     2.14400   -1.54100   -0.00000
  H     4.03100   -1.65100   -1.09300
  F     4.23200   -0.62700    0.61800
  F     4.05500   -2.82100    0.53500
  F     1.76000   -0.39400   -0.58700
  F     1.69100   -1.55200    1.25600
  F     1.58600   -2.56300   -0.67000

}

set basis 6-31G**

energy('mp2')

optimize('mp2', molecule=c2hf5)

set t 273.15

e, wfn = freq('mp2', molecule=c2hf5, return_wfn=True)
entropy = 1000 * psi_hartree2kcalmol * (variable('enthalpy correction') - variable('gibbs free energy correction')) / get_global_option('t')


set hessian_write on
vibanal_wfn(wfn)
entropy = 1000 * psi_hartree2kcalmol * (variable('enthalpy correction') - variable('gibbs free energy correction')) / get_global_option('t')
--------------------------------------------------------------------------

  Memory set to   1.863 GiB by Python driver.

Scratch directory: /tmp/
    SCF Algorithm Type (re)set to DF.

*** tstart() called on d32cepyc049.crc.nd.edu
*** at Mon Jan  2 17:46:49 2023

   => Loading Basis Set <=

    Name: 6-31G**
    Role: ORBITAL
    Keyword: BASIS
    atoms 1-2 entry C          line   115 file /afs/crc.nd.edu/user/b/bagbodek/psi4conda/share/psi4/basis/6-31gss.gbs 
    atoms 3   entry H          line    44 file /afs/crc.nd.edu/user/b/bagbodek/psi4conda/share/psi4/basis/6-31gss.gbs 
    atoms 4-8 entry F          line   166 file /afs/crc.nd.edu/user/b/bagbodek/psi4conda/share/psi4/basis/6-31gss.gbs 


         ---------------------------------------------------------
                                   SCF
               by Justin Turney, Rob Parrish, Andy Simmonett
                          and Daniel G. A. Smith
                              RHF Reference
                        1 Threads,   1907 MiB Core
         ---------------------------------------------------------

  ==> Geometry <==

    Molecular point group: c1
    Full point group: C1

    Geometry (in Angstrom), charge = 0, multiplicity = 1:

       Center              X                  Y                   Z               Mass       
    ------------   -----------------  -----------------  -----------------  -----------------
         C            0.954285831219    -0.068079443558    -0.226305285921    12.000000000000
         C           -0.581714168781     0.052920556442    -0.167305285921    12.000000000000
         H            1.305285831219    -0.057079443558    -1.260305285921     1.007825032230
         F            1.506285831219     0.966920556442     0.450694714079    18.998403162730
         F            1.329285831219    -1.227079443558     0.367694714079    18.998403162730
         F           -0.965714168781     1.199920556442    -0.754305285921    18.998403162730
         F           -1.034714168781     0.041920556442     1.088694714079    18.998403162730
         F           -1.139714168781    -0.969079443558    -0.837305285921    18.998403162730

  Running in c1 symmetry.

  Rotational constants: A =      0.12159  B =      0.07940  C =      0.06587 [cm^-1]
  Rotational constants: A =   3645.23233  B =   2380.46680  C =   1974.72264 [MHz]
  Nuclear repulsion =  357.763350877710707

  Charge       = 0
  Multiplicity = 1
  Electrons    = 58
  Nalpha       = 29
  Nbeta        = 29

  ==> Algorithm <==

  SCF Algorithm Type is DF.
  DIIS enabled.
  MOM disabled.
  Fractional occupation disabled.
  Guess Type is SAD.
  Energy threshold   = 1.00e-08
  Density threshold  = 1.00e-08
  Integral threshold = 1.00e-12

  ==> Primary Basis <==

  Basis Set: 6-31G**
    Blend: 6-31G**
    Number of shells: 45
    Number of basis functions: 110
    Number of Cartesian functions: 110
    Spherical Harmonics?: false
    Max angular momentum: 2

   => Loading Basis Set <=

    Name: (6-31G** AUX)
    Role: JKFIT
    Keyword: DF_BASIS_SCF
    atoms 1-2 entry C          line   121 file /afs/crc.nd.edu/user/b/bagbodek/psi4conda/share/psi4/basis/cc-pvdz-jkfit.gbs 
    atoms 3   entry H          line    51 file /afs/crc.nd.edu/user/b/bagbodek/psi4conda/share/psi4/basis/cc-pvdz-jkfit.gbs 
    atoms 4-8 entry F          line   271 file /afs/crc.nd.edu/user/b/bagbodek/psi4conda/share/psi4/basis/cc-pvdz-jkfit.gbs 

  ==> Integral Setup <==

  DFHelper Memory: AOs need 0.058 GiB; user supplied 1.397 GiB. Using in-core AOs.

  ==> MemDFJK: Density-Fitted J/K Matrices <==

    J tasked:                   Yes
    K tasked:                   Yes
    wK tasked:                   No
    OpenMP threads:               1
    Memory [MiB]:              1430
    Algorithm:                 Core
    Schwarz Cutoff:           1E-12
    Mask sparsity (%):       1.6033
    Fitting Condition:        1E-10

   => Auxiliary Basis Set <=

  Basis Set: (6-31G** AUX)
    Blend: CC-PVDZ-JKFIT
    Number of shells: 177
    Number of basis functions: 592
    Number of Cartesian functions: 592
    Spherical Harmonics?: false
    Max angular momentum: 3

  Minimum eigenvalue in the overlap matrix is 1.9672991244E-03.
  Reciprocal condition number of the overlap matrix is 3.0199441165E-04.
    Using symmetric orthogonalization.

  ==> Pre-Iterations <==

  SCF Guess: Superposition of Atomic Densities via on-the-fly atomic UHF (no occupation information).

   -------------------------
    Irrep   Nso     Nmo    
   -------------------------
     A        110     110 
   -------------------------
    Total     110     110
   -------------------------

  ==> Iterations <==

                           Total Energy        Delta E     RMS |[F,P]|

   @DF-RHF iter SAD:  -572.61198197596673   -5.72612e+02   0.00000e+00 
   @DF-RHF iter   1:  -573.35605817653550   -7.44076e-01   5.70829e-03 ADIIS/DIIS
   @DF-RHF iter   2:  -573.46317394834205   -1.07116e-01   3.54018e-03 ADIIS/DIIS
   @DF-RHF iter   3:  -573.51180238444499   -4.86284e-02   4.25546e-04 ADIIS/DIIS
   @DF-RHF iter   4:  -573.51305700546345   -1.25462e-03   1.03483e-04 ADIIS/DIIS
   @DF-RHF iter   5:  -573.51316048096987   -1.03476e-04   2.60407e-05 DIIS
   @DF-RHF iter   6:  -573.51316844021744   -7.95925e-06   7.00299e-06 DIIS
   @DF-RHF iter   7:  -573.51316885276901   -4.12552e-07   2.30999e-06 DIIS
   @DF-RHF iter   8:  -573.51316888909412   -3.63251e-08   4.51801e-07 DIIS
   @DF-RHF iter   9:  -573.51316889128805   -2.19393e-09   9.35645e-08 DIIS
   @DF-RHF iter  10:  -573.51316889138252   -9.44738e-11   3.04180e-08 DIIS
   @DF-RHF iter  11:  -573.51316889139093   -8.41283e-12   9.89299e-09 DIIS
  Energy and wave function converged.


  ==> Post-Iterations <==

    Orbital Energies [Eh]
    ---------------------

    Doubly Occupied:                                                      

       1A    -26.365733     2A    -26.365330     3A    -26.364434  
       4A    -26.347596     5A    -26.347355     6A    -11.537816  
       7A    -11.455209     8A     -1.748951     9A     -1.689898  
      10A     -1.653673    11A     -1.653104    12A     -1.628903  
      13A     -1.073645    14A     -0.945449    15A     -0.855423  
      16A     -0.845493    17A     -0.843537    18A     -0.798534  
      19A     -0.780661    20A     -0.723860    21A     -0.720693  
      22A     -0.719503    23A     -0.693780    24A     -0.678098  
      25A     -0.676340    26A     -0.663845    27A     -0.653689  
      28A     -0.633854    29A     -0.553676  

    Virtual:                                                              

      30A      0.240547    31A      0.265504    32A      0.294458  
      33A      0.411226    34A      0.424977    35A      0.443220  
      36A      0.480625    37A      0.661549    38A      0.693733  
      39A      0.723522    40A      0.748446    41A      0.758202  
      42A      0.818874    43A      0.895555    44A      1.028104  
      45A      1.148971    46A      1.273959    47A      1.290746  
      48A      1.294122    49A      1.352938    50A      1.361941  
      51A      1.401376    52A      1.454507    53A      1.588508  
      54A      1.591275    55A      1.597181    56A      1.611443  
      57A      1.628751    58A      1.639445    59A      1.645191  
      60A      1.659003    61A      1.668031    62A      1.682414  
      63A      1.771046    64A      1.773643    65A      1.876600  
      66A      1.911664    67A      1.929751    68A      1.994707  
      69A      2.012550    70A      2.055395    71A      2.072609  
      72A      2.095414    73A      2.102206    74A      2.125048  
      75A      2.145625    76A      2.172052    77A      2.260947  
      78A      2.281201    79A      2.305811    80A      2.311850  
      81A      2.335198    82A      2.340353    83A      2.350348  
      84A      2.407237    85A      2.408533    86A      2.490327  
      87A      2.593674    88A      2.626881    89A      2.677883  
      90A      2.712920    91A      2.719269    92A      2.942863  
      93A      3.057255    94A      3.066279    95A      3.108128  
      96A      3.210409    97A      3.248104    98A      3.367839  
      99A      3.394359   100A      3.409522   101A      3.420384  
     102A      3.459962   103A      3.663841   104A      4.438179  
     105A      4.570463   106A      4.756813   107A      4.942589  
     108A      5.265051   109A      5.324543   110A      5.627152  

    Final Occupation by Irrep:
              A 
    DOCC [    29 ]

  @DF-RHF Final Energy:  -573.51316889139093

   => Energetics <=

    Nuclear Repulsion Energy =            357.7633508777107068
    One-Electron Energy =               -1510.5168859462187356
    Two-Electron Energy =                 579.2403661771170391
    Total Energy =                       -573.5131688913909329

Computation Completed


Properties will be evaluated at   0.000000,   0.000000,   0.000000 [a0]

Properties computed using the SCF density matrix


 Multipole Moments:

 ------------------------------------------------------------------------------------
     Multipole            Electronic (a.u.)      Nuclear  (a.u.)        Total (a.u.)
 ------------------------------------------------------------------------------------

 L = 1.  Multiply by 2.5417464519 to convert [e a0] to [Debye]
 Dipole X            :         -1.2431494            1.5109838            0.2678345
 Dipole Y            :          0.0667583           -0.0653991            0.0013591
 Dipole Z            :          0.8613197           -1.4791011           -0.6177814
 Magnitude           :                                                    0.6733432

 ------------------------------------------------------------------------------------

*** tstop() called on d32cepyc049.crc.nd.edu at Mon Jan  2 17:46:51 2023
Module time:
	user time   =       1.42 seconds =       0.02 minutes
	system time =       0.03 seconds =       0.00 minutes
	total time  =          2 seconds =       0.03 minutes
Total time:
	user time   =       1.42 seconds =       0.02 minutes
	system time =       0.03 seconds =       0.00 minutes
	total time  =          2 seconds =       0.03 minutes

*** tstart() called on d32cepyc049.crc.nd.edu
*** at Mon Jan  2 17:46:51 2023


  //>>>>>>>>>>>>>>>>>>>>>>>>>>>>>>>>>>>//
  //               DFMP2               //
  //<<<<<<<<<<<<<<<<<<<<<<<<<<<<<<<<<<<//

   => Loading Basis Set <=

    Name: (6-31G** AUX)
    Role: RIFIT
    Keyword: DF_BASIS_MP2
    atoms 1-2 entry C          line   159 file /afs/crc.nd.edu/user/b/bagbodek/psi4conda/share/psi4/basis/cc-pvdz-ri.gbs 
    atoms 3   entry H          line    19 file /afs/crc.nd.edu/user/b/bagbodek/psi4conda/share/psi4/basis/cc-pvdz-ri.gbs 
    atoms 4-8 entry F          line   273 file /afs/crc.nd.edu/user/b/bagbodek/psi4conda/share/psi4/basis/cc-pvdz-ri.gbs 

	 --------------------------------------------------------
	                          DF-MP2                         
	      2nd-Order Density-Fitted Moller-Plesset Theory     
	              RMP2 Wavefunction,   1 Threads             
	                                                         
	        Rob Parrish, Justin Turney, Andy Simmonett,      
	           Ed Hohenstein, and C. David Sherrill          
	 --------------------------------------------------------

   => Auxiliary Basis Set <=

  Basis Set: (6-31G** AUX)
    Blend: CC-PVDZ-RI
    Number of shells: 132
    Number of basis functions: 406
    Number of Cartesian functions: 477
    Spherical Harmonics?: true
    Max angular momentum: 3

	 --------------------------------------------------------
	                 NBF =   110, NAUX =   406
	 --------------------------------------------------------
	   CLASS    FOCC     OCC    AOCC    AVIR     VIR    FVIR
	   PAIRS       0      29      29      81      81       0
	 --------------------------------------------------------

	-----------------------------------------------------------
	 ==================> DF-MP2 Energies <==================== 
	-----------------------------------------------------------
	 Reference Energy          =    -573.5131688913909329 [Eh]
	 Singles Energy            =      -0.0000000000000000 [Eh]
	 Same-Spin Energy          =      -0.3171551245200877 [Eh]
	 Opposite-Spin Energy      =      -0.8152354200425478 [Eh]
	 Correlation Energy        =      -1.1323905445626354 [Eh]
	 Total Energy              =    -574.6455594359536008 [Eh]
	-----------------------------------------------------------
	 ================> DF-SCS-MP2 Energies <================== 
	-----------------------------------------------------------
	 SCS Same-Spin Scale       =       0.3333333333333333 [-]
	 SCS Opposite-Spin Scale   =       1.2000000000000000 [-]
	 SCS Same-Spin Energy      =      -0.1057183748400292 [Eh]
	 SCS Opposite-Spin Energy  =      -0.9782825040510573 [Eh]
	 SCS Correlation Energy    =      -1.0840008788910866 [Eh]
	 SCS Total Energy          =    -574.5971697702819938 [Eh]
	-----------------------------------------------------------


*** tstop() called on d32cepyc049.crc.nd.edu at Mon Jan  2 17:46:51 2023
Module time:
	user time   =       0.37 seconds =       0.01 minutes
	system time =       0.02 seconds =       0.00 minutes
	total time  =          0 seconds =       0.00 minutes
Total time:
	user time   =       1.79 seconds =       0.03 minutes
	system time =       0.05 seconds =       0.00 minutes
	total time  =          2 seconds =       0.03 minutes

Scratch directory: /tmp/
gradient() will perform analytic gradient computation.
    SCF Algorithm Type (re)set to DF.

*** tstart() called on d32cepyc049.crc.nd.edu
*** at Mon Jan  2 17:46:51 2023

   => Loading Basis Set <=

    Name: 6-31G**
    Role: ORBITAL
    Keyword: BASIS
    atoms 1-2 entry C          line   115 file /afs/crc.nd.edu/user/b/bagbodek/psi4conda/share/psi4/basis/6-31gss.gbs 
    atoms 3   entry H          line    44 file /afs/crc.nd.edu/user/b/bagbodek/psi4conda/share/psi4/basis/6-31gss.gbs 
    atoms 4-8 entry F          line   166 file /afs/crc.nd.edu/user/b/bagbodek/psi4conda/share/psi4/basis/6-31gss.gbs 


         ---------------------------------------------------------
                                   SCF
               by Justin Turney, Rob Parrish, Andy Simmonett
                          and Daniel G. A. Smith
                              RHF Reference
                        1 Threads,   1907 MiB Core
         ---------------------------------------------------------

  ==> Geometry <==

    Molecular point group: c1
    Full point group: C1

    Geometry (in Angstrom), charge = 0, multiplicity = 1:

       Center              X                  Y                   Z               Mass       
    ------------   -----------------  -----------------  -----------------  -----------------
         C            0.954285831219    -0.068079443558    -0.226305285921    12.000000000000
         C           -0.581714168781     0.052920556442    -0.167305285921    12.000000000000
         H            1.305285831219    -0.057079443558    -1.260305285921     1.007825032230
         F            1.506285831219     0.966920556442     0.450694714079    18.998403162730
         F            1.329285831219    -1.227079443558     0.367694714079    18.998403162730
         F           -0.965714168781     1.199920556442    -0.754305285921    18.998403162730
         F           -1.034714168781     0.041920556442     1.088694714079    18.998403162730
         F           -1.139714168781    -0.969079443558    -0.837305285921    18.998403162730

  Running in c1 symmetry.

  Rotational constants: A =      0.12159  B =      0.07940  C =      0.06587 [cm^-1]
  Rotational constants: A =   3645.23233  B =   2380.46680  C =   1974.72264 [MHz]
  Nuclear repulsion =  357.763350877710650

  Charge       = 0
  Multiplicity = 1
  Electrons    = 58
  Nalpha       = 29
  Nbeta        = 29

  ==> Algorithm <==

  SCF Algorithm Type is DF.
  DIIS enabled.
  MOM disabled.
  Fractional occupation disabled.
  Guess Type is SAD.
  Energy threshold   = 1.00e-10
  Density threshold  = 1.00e-10
  Integral threshold = 1.00e-12

  ==> Primary Basis <==

  Basis Set: 6-31G**
    Blend: 6-31G**
    Number of shells: 45
    Number of basis functions: 110
    Number of Cartesian functions: 110
    Spherical Harmonics?: false
    Max angular momentum: 2

   => Loading Basis Set <=

    Name: (6-31G** AUX)
    Role: JKFIT
    Keyword: DF_BASIS_SCF
    atoms 1-2 entry C          line   121 file /afs/crc.nd.edu/user/b/bagbodek/psi4conda/share/psi4/basis/cc-pvdz-jkfit.gbs 
    atoms 3   entry H          line    51 file /afs/crc.nd.edu/user/b/bagbodek/psi4conda/share/psi4/basis/cc-pvdz-jkfit.gbs 
    atoms 4-8 entry F          line   271 file /afs/crc.nd.edu/user/b/bagbodek/psi4conda/share/psi4/basis/cc-pvdz-jkfit.gbs 

  ==> Integral Setup <==

  DFHelper Memory: AOs need 0.058 GiB; user supplied 1.397 GiB. Using in-core AOs.

  ==> MemDFJK: Density-Fitted J/K Matrices <==

    J tasked:                   Yes
    K tasked:                   Yes
    wK tasked:                   No
    OpenMP threads:               1
    Memory [MiB]:              1430
    Algorithm:                 Core
    Schwarz Cutoff:           1E-12
    Mask sparsity (%):       1.6033
    Fitting Condition:        1E-10

   => Auxiliary Basis Set <=

  Basis Set: (6-31G** AUX)
    Blend: CC-PVDZ-JKFIT
    Number of shells: 177
    Number of basis functions: 592
    Number of Cartesian functions: 592
    Spherical Harmonics?: false
    Max angular momentum: 3

  Minimum eigenvalue in the overlap matrix is 1.9672991244E-03.
  Reciprocal condition number of the overlap matrix is 3.0199441165E-04.
    Using symmetric orthogonalization.

  ==> Pre-Iterations <==

  SCF Guess: Superposition of Atomic Densities via on-the-fly atomic UHF (no occupation information).

   -------------------------
    Irrep   Nso     Nmo    
   -------------------------
     A        110     110 
   -------------------------
    Total     110     110
   -------------------------

  ==> Iterations <==

                           Total Energy        Delta E     RMS |[F,P]|

   @DF-RHF iter SAD:  -572.61198197580995   -5.72612e+02   0.00000e+00 
   @DF-RHF iter   1:  -573.35605817637941   -7.44076e-01   5.70829e-03 ADIIS/DIIS
   @DF-RHF iter   2:  -573.46317394818254   -1.07116e-01   3.54018e-03 ADIIS/DIIS
   @DF-RHF iter   3:  -573.51180238428492   -4.86284e-02   4.25546e-04 ADIIS/DIIS
   @DF-RHF iter   4:  -573.51305700530099   -1.25462e-03   1.03483e-04 ADIIS/DIIS
   @DF-RHF iter   5:  -573.51316048080741   -1.03476e-04   2.60407e-05 DIIS
   @DF-RHF iter   6:  -573.51316844005635   -7.95925e-06   7.00299e-06 DIIS
   @DF-RHF iter   7:  -573.51316885260769   -4.12551e-07   2.30999e-06 DIIS
   @DF-RHF iter   8:  -573.51316888893246   -3.63248e-08   4.51801e-07 DIIS
   @DF-RHF iter   9:  -573.51316889112843   -2.19597e-09   9.35645e-08 DIIS
   @DF-RHF iter  10:  -573.51316889122052   -9.20863e-11   3.04180e-08 DIIS
   @DF-RHF iter  11:  -573.51316889122802   -7.50333e-12   9.89299e-09 DIIS
   @DF-RHF iter  12:  -573.51316889122893   -9.09495e-13   2.56863e-09 DIIS
   @DF-RHF iter  13:  -573.51316889122859    3.41061e-13   8.20508e-10 DIIS
   @DF-RHF iter  14:  -573.51316889122825    3.41061e-13   1.99211e-10 DIIS
   @DF-RHF iter  15:  -573.51316889123063   -2.38742e-12   6.21404e-11 DIIS
  Energy and wave function converged.


  ==> Post-Iterations <==

    Orbital Energies [Eh]
    ---------------------

    Doubly Occupied:                                                      

       1A    -26.365733     2A    -26.365330     3A    -26.364434  
       4A    -26.347596     5A    -26.347355     6A    -11.537816  
       7A    -11.455209     8A     -1.748951     9A     -1.689898  
      10A     -1.653673    11A     -1.653104    12A     -1.628903  
      13A     -1.073645    14A     -0.945449    15A     -0.855423  
      16A     -0.845493    17A     -0.843537    18A     -0.798534  
      19A     -0.780661    20A     -0.723860    21A     -0.720693  
      22A     -0.719503    23A     -0.693780    24A     -0.678098  
      25A     -0.676340    26A     -0.663845    27A     -0.653689  
      28A     -0.633854    29A     -0.553676  

    Virtual:                                                              

      30A      0.240547    31A      0.265504    32A      0.294458  
      33A      0.411226    34A      0.424977    35A      0.443220  
      36A      0.480625    37A      0.661549    38A      0.693733  
      39A      0.723522    40A      0.748446    41A      0.758202  
      42A      0.818874    43A      0.895555    44A      1.028104  
      45A      1.148971    46A      1.273959    47A      1.290746  
      48A      1.294122    49A      1.352938    50A      1.361941  
      51A      1.401376    52A      1.454507    53A      1.588508  
      54A      1.591275    55A      1.597181    56A      1.611443  
      57A      1.628751    58A      1.639445    59A      1.645191  
      60A      1.659003    61A      1.668031    62A      1.682414  
      63A      1.771046    64A      1.773643    65A      1.876600  
      66A      1.911664    67A      1.929751    68A      1.994707  
      69A      2.012550    70A      2.055395    71A      2.072609  
      72A      2.095414    73A      2.102206    74A      2.125048  
      75A      2.145625    76A      2.172052    77A      2.260947  
      78A      2.281201    79A      2.305811    80A      2.311850  
      81A      2.335198    82A      2.340353    83A      2.350348  
      84A      2.407237    85A      2.408533    86A      2.490327  
      87A      2.593674    88A      2.626881    89A      2.677883  
      90A      2.712920    91A      2.719269    92A      2.942863  
      93A      3.057255    94A      3.066279    95A      3.108128  
      96A      3.210409    97A      3.248105    98A      3.367839  
      99A      3.394359   100A      3.409522   101A      3.420384  
     102A      3.459962   103A      3.663841   104A      4.438179  
     105A      4.570463   106A      4.756813   107A      4.942589  
     108A      5.265051   109A      5.324543   110A      5.627152  

    Final Occupation by Irrep:
              A 
    DOCC [    29 ]

  @DF-RHF Final Energy:  -573.51316889123063

   => Energetics <=

    Nuclear Repulsion Energy =            357.7633508777106499
    One-Electron Energy =               -1510.5168849587660134
    Two-Electron Energy =                 579.2403651898248427
    Total Energy =                       -573.5131688912306345

Computation Completed


Properties will be evaluated at   0.000000,   0.000000,   0.000000 [a0]

Properties computed using the SCF density matrix


 Multipole Moments:

 ------------------------------------------------------------------------------------
     Multipole            Electronic (a.u.)      Nuclear  (a.u.)        Total (a.u.)
 ------------------------------------------------------------------------------------

 L = 1.  Multiply by 2.5417464519 to convert [e a0] to [Debye]
 Dipole X            :         -1.2431493            1.5109838            0.2678346
 Dipole Y            :          0.0667583           -0.0653991            0.0013591
 Dipole Z            :          0.8613196           -1.4791011           -0.6177815
 Magnitude           :                                                    0.6733432

 ------------------------------------------------------------------------------------

*** tstop() called on d32cepyc049.crc.nd.edu at Mon Jan  2 17:46:53 2023
Module time:
	user time   =       1.62 seconds =       0.03 minutes
	system time =       0.03 seconds =       0.00 minutes
	total time  =          2 seconds =       0.03 minutes
Total time:
	user time   =       3.45 seconds =       0.06 minutes
	system time =       0.08 seconds =       0.00 minutes
	total time  =          4 seconds =       0.07 minutes

*** tstart() called on d32cepyc049.crc.nd.edu
*** at Mon Jan  2 17:46:53 2023


  //>>>>>>>>>>>>>>>>>>>>>>>>>>>>>>>>>>>//
  //               DFMP2               //
  //<<<<<<<<<<<<<<<<<<<<<<<<<<<<<<<<<<<//

   => Loading Basis Set <=

    Name: (6-31G** AUX)
    Role: RIFIT
    Keyword: DF_BASIS_MP2
    atoms 1-2 entry C          line   159 file /afs/crc.nd.edu/user/b/bagbodek/psi4conda/share/psi4/basis/cc-pvdz-ri.gbs 
    atoms 3   entry H          line    19 file /afs/crc.nd.edu/user/b/bagbodek/psi4conda/share/psi4/basis/cc-pvdz-ri.gbs 
    atoms 4-8 entry F          line   273 file /afs/crc.nd.edu/user/b/bagbodek/psi4conda/share/psi4/basis/cc-pvdz-ri.gbs 

	 --------------------------------------------------------
	                          DF-MP2                         
	      2nd-Order Density-Fitted Moller-Plesset Theory     
	              RMP2 Wavefunction,   1 Threads             
	                                                         
	        Rob Parrish, Justin Turney, Andy Simmonett,      
	           Ed Hohenstein, and C. David Sherrill          
	 --------------------------------------------------------

   => Auxiliary Basis Set <=

  Basis Set: (6-31G** AUX)
    Blend: CC-PVDZ-RI
    Number of shells: 132
    Number of basis functions: 406
    Number of Cartesian functions: 477
    Spherical Harmonics?: true
    Max angular momentum: 3

	 --------------------------------------------------------
	                 NBF =   110, NAUX =   406
	 --------------------------------------------------------
	   CLASS    FOCC     OCC    AOCC    AVIR     VIR    FVIR
	   PAIRS       0      29      29      81      81       0
	 --------------------------------------------------------

  DFHelper Memory: AOs need 0.058 GiB; user supplied 1.397 GiB. Using in-core AOs.


         ------------------------------------------------------------
                                     CPHF                           
                                  Rob Parrish                       
         ------------------------------------------------------------

  ==> Geometry <==

    Molecular point group: c1
    Full point group: C1

    Geometry (in Angstrom), charge = 0, multiplicity = 1:

       Center              X                  Y                   Z               Mass       
    ------------   -----------------  -----------------  -----------------  -----------------
         C            0.954285831219    -0.068079443558    -0.226305285921    12.000000000000
         C           -0.581714168781     0.052920556442    -0.167305285921    12.000000000000
         H            1.305285831219    -0.057079443558    -1.260305285921     1.007825032230
         F            1.506285831219     0.966920556442     0.450694714079    18.998403162730
         F            1.329285831219    -1.227079443558     0.367694714079    18.998403162730
         F           -0.965714168781     1.199920556442    -0.754305285921    18.998403162730
         F           -1.034714168781     0.041920556442     1.088694714079    18.998403162730
         F           -1.139714168781    -0.969079443558    -0.837305285921    18.998403162730

  Nuclear repulsion =  357.763350877710650
  Reference energy  = -573.513168891230634

  ==> Basis Set <==

  Basis Set: 6-31G**
    Blend: 6-31G**
    Number of shells: 45
    Number of basis functions: 110
    Number of Cartesian functions: 110
    Spherical Harmonics?: false
    Max angular momentum: 2

  ==> CGRSolver (by Rob Parrish) <==

   Number of roots    =         1
   Preconditioning    =    JACOBI
   Convergence cutoff =     1E-06
   Maximum iterations =       100

  ==> CPHFRHamiltonian (by Rob Parrish) <== 

  ==> MemDFJK: Density-Fitted J/K Matrices <==

    J tasked:                   Yes
    K tasked:                   Yes
    wK tasked:                   No
    OpenMP threads:               1
    Memory [MiB]:              1430
    Algorithm:                 Core
    Schwarz Cutoff:           1E-12
    Mask sparsity (%):       1.6033
    Fitting Condition:        1E-10

   => Auxiliary Basis Set <=

  Basis Set: (6-31G** AUX)
    Blend: CC-PVDZ-JKFIT
    Number of shells: 177
    Number of basis functions: 592
    Number of Cartesian functions: 592
    Spherical Harmonics?: false
    Max angular momentum: 3

  ==> CPHF Iterations <==

  => Iterations <=

             Iter  Converged  Remaining    Residual
  CGR           1          0          1   1.101E-01
  CGR           2          0          1   1.698E-02
  CGR           3          0          1   4.427E-03
  CGR           4          0          1   1.227E-03
  CGR           5          0          1   3.431E-04
  CGR           6          0          1   8.177E-05
  CGR           7          0          1   1.801E-05
  CGR           8          0          1   5.388E-06
  CGR           9          0          1   1.336E-06
  CGR          10          1          0   4.465E-07

    CGRSolver converged.

  ==> DFCorrGrad: Density-Fitted Correlated Gradients <==

    OpenMP threads:              1
    Integrals threads:           1
    Memory [GiB]:            1.397
    Schwarz Cutoff:          0E+00
    Fitting Condition:       1E-10

   => Auxiliary Basis Set <=

  Basis Set: (6-31G** AUX)
    Blend: CC-PVDZ-JKFIT
    Number of shells: 177
    Number of basis functions: 592
    Number of Cartesian functions: 592
    Spherical Harmonics?: false
    Max angular momentum: 3

	-----------------------------------------------------------
	 ==================> DF-MP2 Energies <==================== 
	-----------------------------------------------------------
	 Reference Energy          =    -573.5131688912306345 [Eh]
	 Singles Energy            =      -0.0000000000000000 [Eh]
	 Same-Spin Energy          =      -0.3171551237265204 [Eh]
	 Opposite-Spin Energy      =      -0.8152354194630768 [Eh]
	 Correlation Energy        =      -1.1323905431895971 [Eh]
	 Total Energy              =    -574.6455594344201927 [Eh]
	-----------------------------------------------------------
	 ================> DF-SCS-MP2 Energies <================== 
	-----------------------------------------------------------
	 SCS Same-Spin Scale       =       0.3333333333333333 [-]
	 SCS Opposite-Spin Scale   =       1.2000000000000000 [-]
	 SCS Same-Spin Energy      =      -0.1057183745755068 [Eh]
	 SCS Opposite-Spin Energy  =      -0.9782825033556921 [Eh]
	 SCS Correlation Energy    =      -1.0840008779311989 [Eh]
	 SCS Total Energy          =    -574.5971697691618374 [Eh]
	-----------------------------------------------------------


  -Total Gradient:
     Atom            X                  Y                   Z
    ------   -----------------  -----------------  -----------------
       1        0.006949400339    -0.000281746448     0.003953411567
       2       -0.009054636063     0.000005023022     0.001868594012
       3        0.002155607960    -0.000043138535    -0.002208014656
       4        0.002102429715    -0.002394784826    -0.001061211848
       5        0.002578399374     0.001616223241    -0.000588704257
       6       -0.001698925359    -0.000866169302     0.000081550387
       7       -0.001828517382     0.000328292991    -0.002432590961
       8       -0.001203758581     0.001636299858     0.000386965756


*** tstop() called on d32cepyc049.crc.nd.edu at Mon Jan  2 17:46:57 2023
Module time:
	user time   =       4.06 seconds =       0.07 minutes
	system time =       0.11 seconds =       0.00 minutes
	total time  =          4 seconds =       0.07 minutes
Total time:
	user time   =       7.51 seconds =       0.13 minutes
	system time =       0.19 seconds =       0.00 minutes
	total time  =          8 seconds =       0.13 minutes

			-----------------------------------------
			 OPTKING 2.0: for geometry optimizations 
			  - R.A. King,  Bethel University        
			-----------------------------------------

	Internal coordinates to be generated automatically.
	Detected frag 1 with atoms:  1 2 3 4 5 6 7 8
	---Fragment 1 Bond Connectivity---
	 1 : 2 3 4 5
	 2 : 1 6 7 8
	 3 : 1
	 4 : 1
	 5 : 1
	 6 : 2
	 7 : 2
	 8 : 2

	---Fragment 1 Geometry and Gradient---
	 C           1.8033388664       -0.1286515031       -0.4276550111
	 C          -1.0992804623        0.1000053581       -0.3161611697
	 H           2.4666327364       -0.1078645157       -2.3816318249
	 F           2.8464676877        1.8272150368        0.8516895758
	 F           2.5119861635       -2.3188440825        0.6948423074
	 F          -1.8249352945        2.2675212240       -1.4254304054
	 F          -1.9553263971        0.0792183707        2.0573348438
	 F          -2.1537476403       -1.8312947421       -1.5822776738
	             0.0069494003       -0.0002817464        0.0039534116
	            -0.0090546361        0.0000050230        0.0018685940
	             0.0021556080       -0.0000431385       -0.0022080147
	             0.0021024297       -0.0023947848       -0.0010612118
	             0.0025783994        0.0016162232       -0.0005887043
	            -0.0016989254       -0.0008661693        0.0000815504
	            -0.0018285174        0.0003282930       -0.0024325910
	            -0.0012037586        0.0016362999        0.0003869658

	Previous optimization step data not found.  Starting new optimization.

	---Fragment 1 Intrafragment Coordinates---
	 - Coordinate -           - BOHR/RAD -       - ANG/DEG -
	 R(1,2)           =         2.913746	       1.541888
	 R(1,3)           =         2.063593	       1.092006
	 R(1,4)           =         2.559346	       1.354348
	 R(1,5)           =         2.561079	       1.355265
	 R(2,6)           =         2.540704	       1.344483
	 R(2,7)           =         2.523238	       1.335240
	 R(2,8)           =         2.538675	       1.343409
	 B(1,2,6)         =         1.912150	     109.558137
	 B(1,2,7)         =         1.953378	     111.920318
	 B(1,2,8)         =         1.912392	     109.571999
	 B(2,1,3)         =         1.934396	     110.832734
	 B(2,1,4)         =         1.903840	     109.082012
	 B(2,1,5)         =         1.902846	     109.025066
	 B(3,1,4)         =         1.911993	     109.549127
	 B(3,1,5)         =         1.912068	     109.553400
	 B(4,1,5)         =         1.898290	     108.764011
	 B(6,2,7)         =         1.897391	     108.712475
	 B(6,2,8)         =         1.888758	     108.217888
	 B(7,2,8)         =         1.898584	     108.780846
	 D(3,1,2,6)       =        -1.035482	     -59.328777
	 D(3,1,2,7)       =        -3.141412	    -179.989664
	 D(3,1,2,8)       =         1.034175	      59.253889
	 D(4,1,2,6)       =         1.071046	      61.366399
	 D(4,1,2,7)       =        -1.034884	     -59.294489
	 D(4,1,2,8)       =         3.140704	     179.949064
	 D(5,1,2,6)       =        -3.141460	    -179.992389
	 D(5,1,2,7)       =         1.035796	      59.346723
	 D(5,1,2,8)       =        -1.071802	     -61.409724

	Current energy   :      -574.6455594344

	Generating empirical Hessian (Schlegel '84) for each fragment.
	Taking RFO optimization step.
	Going to follow RFO solution 1.
	Using RFO vector 1.
	Norm of target step-size    0.06801
	Projected energy change by RFO approximation:        -0.0010670694

	Back-transformation to cartesian coordinates...
	Successfully converged to displaced geometry.

	--- Internal Coordinate Step in ANG or DEG, aJ/ANG or AJ/DEG ---
	 ---------------------------------------------------------------------------
	   Coordinate                Previous        Force       Change         New 
	   ----------                --------       ------       ------       ------
	    1 R(1,2)          =      1.541888    -0.113827    -0.025680     1.516207
	    2 R(1,3)          =      1.092006    -0.022930    -0.004244     1.087762
	    3 R(1,4)          =      1.354348     0.012388     0.001467     1.355815
	    4 R(1,5)          =      1.355265     0.007635     0.000908     1.356172
	    5 R(2,6)          =      1.344483     0.002384     0.000272     1.344755
	    6 R(2,7)          =      1.335240     0.013763     0.001514     1.336754
	    7 R(2,8)          =      1.343409     0.007726     0.000877     1.344286
	    8 B(1,2,6)        =    109.558137    -0.000148    -0.382713   109.175424
	    9 B(1,2,7)        =    111.920318    -0.000285    -0.959653   110.960665
	   10 B(1,2,8)        =    109.571999    -0.000140    -0.371957   109.200043
	   11 B(2,1,3)        =    110.832734    -0.000019    -0.175345   110.657390
	   12 B(2,1,4)        =    109.082012    -0.000333    -1.091248   107.990764
	   13 B(2,1,5)        =    109.025066    -0.000327    -1.074808   107.950258
	   14 B(3,1,4)        =    109.549127     0.000191     0.803435   110.352561
	   15 B(3,1,5)        =    109.553400     0.000185     0.762432   110.315832
	   16 B(4,1,5)        =    108.764011     0.000304     0.743647   109.507657
	   17 B(6,2,7)        =    108.712475     0.000206     0.512168   109.224643
	   18 B(6,2,8)        =    108.217888     0.000193     0.801316   109.019204
	   19 B(7,2,8)        =    108.780846     0.000195     0.451563   109.232409
	   20 D(3,1,2,6)      =    -59.328777    -0.000007    -0.237248   -59.566025
	   21 D(3,1,2,7)      =   -179.989664    -0.000001    -0.010336  -180.000000
	   22 D(3,1,2,8)      =     59.253889     0.000007     0.287737    59.541626
	   23 D(4,1,2,6)      =     61.366399    -0.000005    -0.052892    61.313506
	   24 D(4,1,2,7)      =    -59.294489     0.000001     0.174630   -59.119858
	   25 D(4,1,2,8)      =    179.949064     0.000009     0.472093   180.421157
	   26 D(5,1,2,6)      =   -179.992389    -0.000009    -0.382465  -180.374854
	   27 D(5,1,2,7)      =     59.346723    -0.000002    -0.154942    59.191781
	   28 D(5,1,2,8)      =    -61.409724     0.000006     0.142520   -61.267203
	 ---------------------------------------------------------------------------
	Successfully symmetrized geometry.

  ==> Convergence Check <==

  Measures of convergence in internal coordinates in au.
  Criteria marked as inactive (o), active & met (*), and active & unmet ( ).
  --------------------------------------------------------------------------------------------- ~
   Step     Total Energy     Delta E     MAX Force     RMS Force      MAX Disp      RMS Disp    ~
  --------------------------------------------------------------------------------------------- ~
    Convergence Criteria    1.00e-06 *    3.00e-04 *             o    1.20e-03 *             o  ~
  --------------------------------------------------------------------------------------------- ~
      1    -574.64555943   -5.75e+02      1.38e-02      3.35e-03 o    4.85e-02      1.28e-02 o  ~
  ---------------------------------------------------------------------------------------------

	Writing optimization data to binary file.
	Structure for next step:
	Cartesian Geometry (in Angstrom)
	    C     0.9432345995  -0.0668196252  -0.2314382341
	    C    -0.5670958428   0.0520741889  -0.1710156587
	    H     1.2882098293  -0.0539896677  -1.2629679719
	    F     1.4731215690   0.9747709981   0.4559799702
	    F     1.2951577250  -1.2311519073   0.3682978411
	    F    -0.9430657648   1.2046272778  -0.7529373820
	    F    -0.9977163307   0.0369453119   1.0943884962
	    F    -1.1185591402  -0.9760921248  -0.8387493429
			--------------------------
			 OPTKING Finished Execution 
			--------------------------

    Structure for next step:
    Molecular point group: c1
    Full point group: C1

    Geometry (in Angstrom), charge = 0, multiplicity = 1:

    C            0.940882574411    -0.066332288575    -0.232353173569
    C           -0.569447873793     0.052561525981    -0.171930597971
    H            1.285857805615    -0.053502330997    -1.263882915492
    F            1.470769545981     0.975258338760     0.455065033369
    F            1.292805701277    -1.230664575257     0.367382903920
    F           -0.945417797292     1.205114619375    -0.753852323511
    F           -1.000068363413     0.037432648936     1.093473561902
    F           -1.120911173364    -0.975604791755    -0.839664284803


Scratch directory: /tmp/
gradient() will perform analytic gradient computation.
    SCF Algorithm Type (re)set to DF.

*** tstart() called on d32cepyc049.crc.nd.edu
*** at Mon Jan  2 17:46:57 2023

   => Loading Basis Set <=

    Name: 6-31G**
    Role: ORBITAL
    Keyword: BASIS
    atoms 1-2 entry C          line   115 file /afs/crc.nd.edu/user/b/bagbodek/psi4conda/share/psi4/basis/6-31gss.gbs 
    atoms 3   entry H          line    44 file /afs/crc.nd.edu/user/b/bagbodek/psi4conda/share/psi4/basis/6-31gss.gbs 
    atoms 4-8 entry F          line   166 file /afs/crc.nd.edu/user/b/bagbodek/psi4conda/share/psi4/basis/6-31gss.gbs 


         ---------------------------------------------------------
                                   SCF
               by Justin Turney, Rob Parrish, Andy Simmonett
                          and Daniel G. A. Smith
                              RHF Reference
                        1 Threads,   1907 MiB Core
         ---------------------------------------------------------

  ==> Geometry <==

    Molecular point group: c1
    Full point group: C1

    Geometry (in Angstrom), charge = 0, multiplicity = 1:

       Center              X                  Y                   Z               Mass       
    ------------   -----------------  -----------------  -----------------  -----------------
         C            0.940882574411    -0.066332288575    -0.232353173569    12.000000000000
         C           -0.569447873793     0.052561525981    -0.171930597971    12.000000000000
         H            1.285857805615    -0.053502330997    -1.263882915492     1.007825032230
         F            1.470769545981     0.975258338760     0.455065033369    18.998403162730
         F            1.292805701277    -1.230664575257     0.367382903920    18.998403162730
         F           -0.945417797292     1.205114619375    -0.753852323511    18.998403162730
         F           -1.000068363413     0.037432648936     1.093473561902    18.998403162730
         F           -1.120911173364    -0.975604791755    -0.839664284803    18.998403162730

  Running in c1 symmetry.

  Rotational constants: A =      0.12070  B =      0.08207  C =      0.06743 [cm^-1]
  Rotational constants: A =   3618.35526  B =   2460.46105  C =   2021.53514 [MHz]
  Nuclear repulsion =  359.873071179658950

  Charge       = 0
  Multiplicity = 1
  Electrons    = 58
  Nalpha       = 29
  Nbeta        = 29

  ==> Algorithm <==

  SCF Algorithm Type is DF.
  DIIS enabled.
  MOM disabled.
  Fractional occupation disabled.
  Guess Type is READ.
  Energy threshold   = 1.00e-10
  Density threshold  = 1.00e-10
  Integral threshold = 1.00e-12

  ==> Primary Basis <==

  Basis Set: 6-31G**
    Blend: 6-31G**
    Number of shells: 45
    Number of basis functions: 110
    Number of Cartesian functions: 110
    Spherical Harmonics?: false
    Max angular momentum: 2

   => Loading Basis Set <=

    Name: (6-31G** AUX)
    Role: JKFIT
    Keyword: DF_BASIS_SCF
    atoms 1-2 entry C          line   121 file /afs/crc.nd.edu/user/b/bagbodek/psi4conda/share/psi4/basis/cc-pvdz-jkfit.gbs 
    atoms 3   entry H          line    51 file /afs/crc.nd.edu/user/b/bagbodek/psi4conda/share/psi4/basis/cc-pvdz-jkfit.gbs 
    atoms 4-8 entry F          line   271 file /afs/crc.nd.edu/user/b/bagbodek/psi4conda/share/psi4/basis/cc-pvdz-jkfit.gbs 

   => Loading Basis Set <=

    Name: 6-31G**
    Role: ORBITAL
    Keyword: BASIS
    atoms 1-2 entry C          line   115 file /afs/crc.nd.edu/user/b/bagbodek/psi4conda/share/psi4/basis/6-31gss.gbs 
    atoms 3   entry H          line    44 file /afs/crc.nd.edu/user/b/bagbodek/psi4conda/share/psi4/basis/6-31gss.gbs 
    atoms 4-8 entry F          line   166 file /afs/crc.nd.edu/user/b/bagbodek/psi4conda/share/psi4/basis/6-31gss.gbs 

  Reading orbitals from file /tmp/Psi4_R125_273K_output.c2hf5.2714632.180.npy, no projection.

  ==> Integral Setup <==

  DFHelper Memory: AOs need 0.058 GiB; user supplied 1.397 GiB. Using in-core AOs.

  ==> MemDFJK: Density-Fitted J/K Matrices <==

    J tasked:                   Yes
    K tasked:                   Yes
    wK tasked:                   No
    OpenMP threads:               1
    Memory [MiB]:              1430
    Algorithm:                 Core
    Schwarz Cutoff:           1E-12
    Mask sparsity (%):       1.5207
    Fitting Condition:        1E-10

   => Auxiliary Basis Set <=

  Basis Set: (6-31G** AUX)
    Blend: CC-PVDZ-JKFIT
    Number of shells: 177
    Number of basis functions: 592
    Number of Cartesian functions: 592
    Spherical Harmonics?: false
    Max angular momentum: 3

  Minimum eigenvalue in the overlap matrix is 1.9088819133E-03.
  Reciprocal condition number of the overlap matrix is 2.9030662127E-04.
    Using symmetric orthogonalization.

  ==> Pre-Iterations <==

  SCF Guess: Orbitals guess was supplied from a previous computation.

   -------------------------------------------------------
    Irrep   Nso     Nmo     Nalpha   Nbeta   Ndocc  Nsocc
   -------------------------------------------------------
     A        110     110      29      29      29       0
   -------------------------------------------------------
    Total     110     110      29      29      29       0
   -------------------------------------------------------

  ==> Iterations <==

                           Total Energy        Delta E     RMS |[F,P]|

   @DF-RHF iter   0:  -573.53115276707229   -5.73531e+02   7.34051e-04 
   @DF-RHF iter   1:  -573.51324629031433    1.79065e-02   8.88599e-05 DIIS
   @DF-RHF iter   2:  -573.51331944279457   -7.31525e-05   3.71323e-05 DIIS
   @DF-RHF iter   3:  -573.51333150153300   -1.20587e-05   1.84099e-05 DIIS
   @DF-RHF iter   4:  -573.51333466243523   -3.16090e-06   4.49114e-06 DIIS
   @DF-RHF iter   5:  -573.51333484024235   -1.77807e-07   1.10595e-06 DIIS
   @DF-RHF iter   6:  -573.51333485700104   -1.67587e-08   2.41426e-07 DIIS
   @DF-RHF iter   7:  -573.51333485788371   -8.82665e-10   7.12268e-08 DIIS
   @DF-RHF iter   8:  -573.51333485794385   -6.01403e-11   2.79964e-08 DIIS
   @DF-RHF iter   9:  -573.51333485794828   -4.43379e-12   7.33062e-09 DIIS
   @DF-RHF iter  10:  -573.51333485795101   -2.72848e-12   1.62462e-09 DIIS
   @DF-RHF iter  11:  -573.51333485795203   -1.02318e-12   4.76557e-10 DIIS
   @DF-RHF iter  12:  -573.51333485795112    9.09495e-13   1.44400e-10 DIIS
   @DF-RHF iter  13:  -573.51333485795055    5.68434e-13   4.25771e-11 DIIS
  Energy and wave function converged.


  ==> Post-Iterations <==

    Orbital Energies [Eh]
    ---------------------

    Doubly Occupied:                                                      

       1A    -26.366281     2A    -26.366122     3A    -26.363864  
       4A    -26.347350     5A    -26.347205     6A    -11.535305  
       7A    -11.451979     8A     -1.748442     9A     -1.688452  
      10A     -1.654915    11A     -1.653006    12A     -1.628951  
      13A     -1.080681    14A     -0.944049    15A     -0.856603  
      16A     -0.845507    17A     -0.844935    18A     -0.797923  
      19A     -0.780429    20A     -0.721083    21A     -0.720834  
      22A     -0.718548    23A     -0.694901    24A     -0.678319  
      25A     -0.676975    26A     -0.664637    27A     -0.653862  
      28A     -0.634720    29A     -0.556293  

    Virtual:                                                              

      30A      0.243115    31A      0.269956    32A      0.292361  
      33A      0.405881    34A      0.429358    35A      0.445337  
      36A      0.489101    37A      0.664618    38A      0.695936  
      39A      0.724939    40A      0.750024    41A      0.761049  
      42A      0.820145    43A      0.897605    44A      1.029110  
      45A      1.145205    46A      1.271090    47A      1.289948  
      48A      1.293670    49A      1.355913    50A      1.363901  
      51A      1.402667    52A      1.449997    53A      1.582317  
      54A      1.589407    55A      1.599967    56A      1.617014  
      57A      1.634116    58A      1.636263    59A      1.645474  
      60A      1.661189    61A      1.670715    62A      1.694393  
      63A      1.784985    64A      1.787249    65A      1.878412  
      66A      1.911514    67A      1.944682    68A      1.996604  
      69A      2.021935    70A      2.054222    71A      2.074833  
      72A      2.093650    73A      2.104506    74A      2.125621  
      75A      2.143136    76A      2.178751    77A      2.256905  
      78A      2.271650    79A      2.290931    80A      2.313524  
      81A      2.330405    82A      2.331716    83A      2.340765  
      84A      2.408623    85A      2.415637    86A      2.504415  
      87A      2.604847    88A      2.642931    89A      2.709635  
      90A      2.734464    91A      2.735734    92A      2.935647  
      93A      3.071315    94A      3.091580    95A      3.110327  
      96A      3.224992    97A      3.259491    98A      3.378747  
      99A      3.402293   100A      3.403579   101A      3.425581  
     102A      3.480829   103A      3.674938   104A      4.455642  
     105A      4.588084   106A      4.768285   107A      4.953776  
     108A      5.343926   109A      5.408950   110A      5.656414  

    Final Occupation by Irrep:
              A 
    DOCC [    29 ]

  @DF-RHF Final Energy:  -573.51333485795055

   => Energetics <=

    Nuclear Repulsion Energy =            359.8730711796589503
    One-Electron Energy =               -1514.7284697038335253
    Two-Electron Energy =                 581.3420636662241350
    Total Energy =                       -573.5133348579505537

Computation Completed


Properties will be evaluated at   0.000000,   0.000000,   0.000000 [a0]

Properties computed using the SCF density matrix


 Multipole Moments:

 ------------------------------------------------------------------------------------
     Multipole            Electronic (a.u.)      Nuclear  (a.u.)        Total (a.u.)
 ------------------------------------------------------------------------------------

 L = 1.  Multiply by 2.5417464519 to convert [e a0] to [Debye]
 Dipole X            :         -1.2234357            1.4911210            0.2676852
 Dipole Y            :          0.0647205           -0.0610396            0.0036809
 Dipole Z            :          0.8518152           -1.4889937           -0.6371785
 Magnitude           :                                                    0.6911334

 ------------------------------------------------------------------------------------

*** tstop() called on d32cepyc049.crc.nd.edu at Mon Jan  2 17:46:59 2023
Module time:
	user time   =       1.39 seconds =       0.02 minutes
	system time =       0.01 seconds =       0.00 minutes
	total time  =          2 seconds =       0.03 minutes
Total time:
	user time   =       8.94 seconds =       0.15 minutes
	system time =       0.21 seconds =       0.00 minutes
	total time  =         10 seconds =       0.17 minutes

*** tstart() called on d32cepyc049.crc.nd.edu
*** at Mon Jan  2 17:46:59 2023


  //>>>>>>>>>>>>>>>>>>>>>>>>>>>>>>>>>>>//
  //               DFMP2               //
  //<<<<<<<<<<<<<<<<<<<<<<<<<<<<<<<<<<<//

   => Loading Basis Set <=

    Name: (6-31G** AUX)
    Role: RIFIT
    Keyword: DF_BASIS_MP2
    atoms 1-2 entry C          line   159 file /afs/crc.nd.edu/user/b/bagbodek/psi4conda/share/psi4/basis/cc-pvdz-ri.gbs 
    atoms 3   entry H          line    19 file /afs/crc.nd.edu/user/b/bagbodek/psi4conda/share/psi4/basis/cc-pvdz-ri.gbs 
    atoms 4-8 entry F          line   273 file /afs/crc.nd.edu/user/b/bagbodek/psi4conda/share/psi4/basis/cc-pvdz-ri.gbs 

	 --------------------------------------------------------
	                          DF-MP2                         
	      2nd-Order Density-Fitted Moller-Plesset Theory     
	              RMP2 Wavefunction,   1 Threads             
	                                                         
	        Rob Parrish, Justin Turney, Andy Simmonett,      
	           Ed Hohenstein, and C. David Sherrill          
	 --------------------------------------------------------

   => Auxiliary Basis Set <=

  Basis Set: (6-31G** AUX)
    Blend: CC-PVDZ-RI
    Number of shells: 132
    Number of basis functions: 406
    Number of Cartesian functions: 477
    Spherical Harmonics?: true
    Max angular momentum: 3

	 --------------------------------------------------------
	                 NBF =   110, NAUX =   406
	 --------------------------------------------------------
	   CLASS    FOCC     OCC    AOCC    AVIR     VIR    FVIR
	   PAIRS       0      29      29      81      81       0
	 --------------------------------------------------------

  DFHelper Memory: AOs need 0.058 GiB; user supplied 1.397 GiB. Using in-core AOs.


         ------------------------------------------------------------
                                     CPHF                           
                                  Rob Parrish                       
         ------------------------------------------------------------

  ==> Geometry <==

    Molecular point group: c1
    Full point group: C1

    Geometry (in Angstrom), charge = 0, multiplicity = 1:

       Center              X                  Y                   Z               Mass       
    ------------   -----------------  -----------------  -----------------  -----------------
         C            0.940882574411    -0.066332288575    -0.232353173569    12.000000000000
         C           -0.569447873793     0.052561525981    -0.171930597971    12.000000000000
         H            1.285857805615    -0.053502330997    -1.263882915492     1.007825032230
         F            1.470769545981     0.975258338760     0.455065033369    18.998403162730
         F            1.292805701277    -1.230664575257     0.367382903920    18.998403162730
         F           -0.945417797292     1.205114619375    -0.753852323511    18.998403162730
         F           -1.000068363413     0.037432648936     1.093473561902    18.998403162730
         F           -1.120911173364    -0.975604791755    -0.839664284803    18.998403162730

  Nuclear repulsion =  359.873071179658950
  Reference energy  = -573.513334857950554

  ==> Basis Set <==

  Basis Set: 6-31G**
    Blend: 6-31G**
    Number of shells: 45
    Number of basis functions: 110
    Number of Cartesian functions: 110
    Spherical Harmonics?: false
    Max angular momentum: 2

  ==> CGRSolver (by Rob Parrish) <==

   Number of roots    =         1
   Preconditioning    =    JACOBI
   Convergence cutoff =     1E-06
   Maximum iterations =       100

  ==> CPHFRHamiltonian (by Rob Parrish) <== 

  ==> MemDFJK: Density-Fitted J/K Matrices <==

    J tasked:                   Yes
    K tasked:                   Yes
    wK tasked:                   No
    OpenMP threads:               1
    Memory [MiB]:              1430
    Algorithm:                 Core
    Schwarz Cutoff:           1E-12
    Mask sparsity (%):       1.5207
    Fitting Condition:        1E-10

   => Auxiliary Basis Set <=

  Basis Set: (6-31G** AUX)
    Blend: CC-PVDZ-JKFIT
    Number of shells: 177
    Number of basis functions: 592
    Number of Cartesian functions: 592
    Spherical Harmonics?: false
    Max angular momentum: 3

  ==> CPHF Iterations <==

  => Iterations <=

             Iter  Converged  Remaining    Residual
  CGR           1          0          1   1.099E-01
  CGR           2          0          1   1.682E-02
  CGR           3          0          1   4.312E-03
  CGR           4          0          1   1.212E-03
  CGR           5          0          1   3.336E-04
  CGR           6          0          1   8.031E-05
  CGR           7          0          1   1.769E-05
  CGR           8          0          1   5.241E-06
  CGR           9          0          1   1.303E-06
  CGR          10          1          0   4.183E-07

    CGRSolver converged.

  ==> DFCorrGrad: Density-Fitted Correlated Gradients <==

    OpenMP threads:              1
    Integrals threads:           1
    Memory [GiB]:            1.397
    Schwarz Cutoff:          0E+00
    Fitting Condition:       1E-10

   => Auxiliary Basis Set <=

  Basis Set: (6-31G** AUX)
    Blend: CC-PVDZ-JKFIT
    Number of shells: 177
    Number of basis functions: 592
    Number of Cartesian functions: 592
    Spherical Harmonics?: false
    Max angular momentum: 3

	-----------------------------------------------------------
	 ==================> DF-MP2 Energies <==================== 
	-----------------------------------------------------------
	 Reference Energy          =    -573.5133348579505537 [Eh]
	 Singles Energy            =      -0.0000000000000000 [Eh]
	 Same-Spin Energy          =      -0.3173389731479494 [Eh]
	 Opposite-Spin Energy      =      -0.8152791591743159 [Eh]
	 Correlation Energy        =      -1.1326181323222653 [Eh]
	 Total Energy              =    -574.6459529902728036 [Eh]
	-----------------------------------------------------------
	 ================> DF-SCS-MP2 Energies <================== 
	-----------------------------------------------------------
	 SCS Same-Spin Scale       =       0.3333333333333333 [-]
	 SCS Opposite-Spin Scale   =       1.2000000000000000 [-]
	 SCS Same-Spin Energy      =      -0.1057796577159831 [Eh]
	 SCS Opposite-Spin Energy  =      -0.9783349910091791 [Eh]
	 SCS Correlation Energy    =      -1.0841146487251623 [Eh]
	 SCS Total Energy          =    -574.5974495066757299 [Eh]
	-----------------------------------------------------------


  -Total Gradient:
     Atom            X                  Y                   Z
    ------   -----------------  -----------------  -----------------
       1        0.002499231961     0.000038907019     0.000092332136
       2       -0.002722748950    -0.000093278249     0.000795566633
       3       -0.001736053316     0.000125034921    -0.000629285249
       4       -0.001693686861    -0.000230593052     0.000034170690
       5       -0.001632066000     0.000346082501     0.000104215058
       6        0.001897167739     0.000710706873    -0.000133144755
       7        0.001536539602    -0.000116259617    -0.000204997490
       8        0.001851615829    -0.000780600395    -0.000058857023


*** tstop() called on d32cepyc049.crc.nd.edu at Mon Jan  2 17:47:03 2023
Module time:
	user time   =       4.05 seconds =       0.07 minutes
	system time =       0.12 seconds =       0.00 minutes
	total time  =          4 seconds =       0.07 minutes
Total time:
	user time   =      13.00 seconds =       0.22 minutes
	system time =       0.33 seconds =       0.01 minutes
	total time  =         14 seconds =       0.23 minutes

			-----------------------------------------
			 OPTKING 2.0: for geometry optimizations 
			  - R.A. King,  Bethel University        
			-----------------------------------------

	Previous internal coordinate definitions found.
	---Fragment 1 Geometry and Gradient---
	 C           1.7780103819       -0.1253498587       -0.4390838624
	 C          -1.0761005242        0.0993268888       -0.3249017428
	 H           2.4299190889       -0.1011047527       -2.3883925649
	 F           2.7793516356        1.8429711618        0.8599482823
	 F           2.4430487088       -2.3256189995        0.6942530716
	 F          -1.7865807110        2.2773365804       -1.4245744305
	 F          -1.8898553136        0.0707374546        2.0663655574
	 F          -2.1182151286       -1.8436258631       -1.5867355356
	             0.0024992320        0.0000389070        0.0000923321
	            -0.0027227490       -0.0000932782        0.0007955666
	            -0.0017360533        0.0001250349       -0.0006292852
	            -0.0016936869       -0.0002305931        0.0000341707
	            -0.0016320660        0.0003460825        0.0001042151
	             0.0018971677        0.0007107069       -0.0001331448
	             0.0015365396       -0.0001162596       -0.0002049975
	             0.0018516158       -0.0007806004       -0.0000588570

	---Fragment 1 Intrafragment Coordinates---
	 - Coordinate -           - BOHR/RAD -       - ANG/DEG -
	 R(1,2)           =         2.865217	       1.516207
	 R(1,3)           =         2.055572	       1.087762
	 R(1,4)           =         2.562120	       1.355815
	 R(1,5)           =         2.562794	       1.356172
	 R(2,6)           =         2.541218	       1.344755
	 R(2,7)           =         2.526098	       1.336754
	 R(2,8)           =         2.540333	       1.344286
	 B(1,2,6)         =         1.905471	     109.175424
	 B(1,2,7)         =         1.936629	     110.960665
	 B(1,2,8)         =         1.905900	     109.200043
	 B(2,1,3)         =         1.931336	     110.657390
	 B(2,1,4)         =         1.884794	     107.990764
	 B(2,1,5)         =         1.884087	     107.950258
	 B(3,1,4)         =         1.926016	     110.352561
	 B(3,1,5)         =         1.925374	     110.315832
	 B(4,1,5)         =         1.911269	     109.507657
	 B(6,2,7)         =         1.906330	     109.224643
	 B(6,2,8)         =         1.902744	     109.019204
	 B(7,2,8)         =         1.906465	     109.232409
	 D(3,1,2,6)       =        -1.039623	     -59.566025
	 D(3,1,2,7)       =         3.141593	     180.000000
	 D(3,1,2,8)       =         1.039197	      59.541626
	 D(4,1,2,6)       =         1.070123	      61.313506
	 D(4,1,2,7)       =        -1.031836	     -59.119858
	 D(4,1,2,8)       =        -3.134242	    -179.578843
	 D(5,1,2,6)       =         3.135050	     179.625146
	 D(5,1,2,7)       =         1.033091	      59.191781
	 D(5,1,2,8)       =        -1.069314	     -61.267203

	Current energy   :      -574.6459529903

	Energy change for the previous step:
		Projected    :        -0.0010670694
		Actual       :        -0.0003935559

	Performing BFGS update.
	Previous computed or guess Hessian on step 1.
	Steps to be used in Hessian update: 1
	Taking RFO optimization step.
	Going to follow RFO solution 1.
	Using RFO vector 1.
	Norm of target step-size    0.02312
	Projected energy change by RFO approximation:        -0.0001897115

	Back-transformation to cartesian coordinates...
	Could not converge backtransformation.
	Using first guess instead.

	--- Internal Coordinate Step in ANG or DEG, aJ/ANG or AJ/DEG ---
	 ---------------------------------------------------------------------------
	   Coordinate                Previous        Force       Change         New 
	   ----------                --------       ------       ------       ------
	    1 R(1,2)          =      1.516207     0.021080     0.002002     1.518210
	    2 R(1,3)          =      1.087762    -0.000393    -0.000258     1.087504
	    3 R(1,4)          =      1.355815     0.006770     0.000698     1.356514
	    4 R(1,5)          =      1.356172     0.005557     0.000562     1.356734
	    5 R(2,6)          =      1.344755    -0.001123    -0.000047     1.344708
	    6 R(2,7)          =      1.336754     0.005666     0.000562     1.337316
	    7 R(2,8)          =      1.344286     0.001098     0.000177     1.344463
	    8 B(1,2,6)        =    109.175424     0.000203     0.419411   109.594836
	    9 B(1,2,7)        =    110.960665     0.000110     0.203850   111.164515
	   10 B(1,2,8)        =    109.200043     0.000199     0.411026   109.611069
	   11 B(2,1,3)        =    110.657390     0.000139     0.497363   111.154753
	   12 B(2,1,4)        =    107.990764     0.000151     0.302526   108.293290
	   13 B(2,1,5)        =    107.950258     0.000158     0.326805   108.277062
	   14 B(3,1,4)        =    110.352561    -0.000153    -0.471418   109.881143
	   15 B(3,1,5)        =    110.315832    -0.000152    -0.448991   109.866842
	   16 B(4,1,5)        =    109.507657    -0.000132    -0.185754   109.321903
	   17 B(6,2,7)        =    109.224643    -0.000156    -0.298923   108.925720
	   18 B(6,2,8)        =    109.019204    -0.000207    -0.452526   108.566678
	   19 B(7,2,8)        =    109.232409    -0.000155    -0.301602   108.930807
	   20 D(3,1,2,6)      =    -59.566025     0.000002     0.033262   -59.532762
	   21 D(3,1,2,7)      =    180.000000     0.000000     0.002679   180.002679
	   22 D(3,1,2,8)      =     59.541626    -0.000001    -0.020555    59.521071
	   23 D(4,1,2,6)      =     61.313506     0.000000    -0.050497    61.263009
	   24 D(4,1,2,7)      =    -59.119858    -0.000002    -0.081691   -59.201549
	   25 D(4,1,2,8)      =   -179.578843    -0.000003    -0.104315  -179.683158
	   26 D(5,1,2,6)      =    179.625146     0.000003     0.074502   179.699648
	   27 D(5,1,2,7)      =     59.191781     0.000001     0.043309    59.235090
	   28 D(5,1,2,8)      =    -61.267203    -0.000000     0.020685   -61.246519
	 ---------------------------------------------------------------------------
	Successfully symmetrized geometry.

  ==> Convergence Check <==

  Measures of convergence in internal coordinates in au.
  Criteria marked as inactive (o), active & met (*), and active & unmet ( ).
  ---------------------------------------------------------------------------------------------
   Step     Total Energy     Delta E     MAX Force     RMS Force      MAX Disp      RMS Disp   
  ---------------------------------------------------------------------------------------------
    Convergence Criteria    1.00e-06 *    3.00e-04 *             o    1.20e-03 *             o
  ---------------------------------------------------------------------------------------------
      2    -574.64595299   -3.94e-04      2.72e-03      1.50e-03 o    8.68e-03      4.38e-03 o  ~
  ---------------------------------------------------------------------------------------------

	Writing optimization data to binary file.
	Structure for next step:
	Cartesian Geometry (in Angstrom)
	    C     0.9418793646  -0.0665786006  -0.2319493956
	    C    -0.5704652506   0.0527145575  -0.1724249969
	    H     1.2963569021  -0.0545248455  -1.2599890001
	    F     1.4783646935   0.9740185816   0.4532297236
	    F     1.3007439713  -1.2304271971   0.3658796832
	    F    -0.9553187760   1.2028660773  -0.7531815564
	    F    -1.0065802859   0.0379701758   1.0916955159
	    F    -1.1305102048  -0.9717756023  -0.8390217644
			--------------------------
			 OPTKING Finished Execution 
			--------------------------

    Structure for next step:
    Molecular point group: c1
    Full point group: C1

    Geometry (in Angstrom), charge = 0, multiplicity = 1:

    C            0.943452210772    -0.066737338145    -0.231370900062
    C           -0.568892410414     0.052555820438    -0.171846501130
    H            1.297929749624    -0.054683582960    -1.259410508569
    F            1.479937541743     0.973859848152     0.453808221856
    F            1.302316818831    -1.230585939157     0.366458181095
    F           -0.953745937350     1.202707344746    -0.752603062917
    F           -1.005007447368     0.037811438691     1.092274016705
    F           -1.128937366816    -0.971934343375    -0.838443271242


Scratch directory: /tmp/
gradient() will perform analytic gradient computation.
    SCF Algorithm Type (re)set to DF.

*** tstart() called on d32cepyc049.crc.nd.edu
*** at Mon Jan  2 17:47:03 2023

   => Loading Basis Set <=

    Name: 6-31G**
    Role: ORBITAL
    Keyword: BASIS
    atoms 1-2 entry C          line   115 file /afs/crc.nd.edu/user/b/bagbodek/psi4conda/share/psi4/basis/6-31gss.gbs 
    atoms 3   entry H          line    44 file /afs/crc.nd.edu/user/b/bagbodek/psi4conda/share/psi4/basis/6-31gss.gbs 
    atoms 4-8 entry F          line   166 file /afs/crc.nd.edu/user/b/bagbodek/psi4conda/share/psi4/basis/6-31gss.gbs 


         ---------------------------------------------------------
                                   SCF
               by Justin Turney, Rob Parrish, Andy Simmonett
                          and Daniel G. A. Smith
                              RHF Reference
                        1 Threads,   1907 MiB Core
         ---------------------------------------------------------

  ==> Geometry <==

    Molecular point group: c1
    Full point group: C1

    Geometry (in Angstrom), charge = 0, multiplicity = 1:

       Center              X                  Y                   Z               Mass       
    ------------   -----------------  -----------------  -----------------  -----------------
         C            0.943452210772    -0.066737338145    -0.231370900062    12.000000000000
         C           -0.568892410414     0.052555820438    -0.171846501130    12.000000000000
         H            1.297929749624    -0.054683582960    -1.259410508569     1.007825032230
         F            1.479937541743     0.973859848152     0.453808221856    18.998403162730
         F            1.302316818831    -1.230585939157     0.366458181095    18.998403162730
         F           -0.953745937350     1.202707344746    -0.752603062917    18.998403162730
         F           -1.005007447368     0.037811438691     1.092274016705    18.998403162730
         F           -1.128937366816    -0.971934343375    -0.838443271242    18.998403162730

  Running in c1 symmetry.

  Rotational constants: A =      0.12108  B =      0.08138  C =      0.06702 [cm^-1]
  Rotational constants: A =   3629.79522  B =   2439.83794  C =   2009.12371 [MHz]
  Nuclear repulsion =  359.386159586082840

  Charge       = 0
  Multiplicity = 1
  Electrons    = 58
  Nalpha       = 29
  Nbeta        = 29

  ==> Algorithm <==

  SCF Algorithm Type is DF.
  DIIS enabled.
  MOM disabled.
  Fractional occupation disabled.
  Guess Type is READ.
  Energy threshold   = 1.00e-10
  Density threshold  = 1.00e-10
  Integral threshold = 1.00e-12

  ==> Primary Basis <==

  Basis Set: 6-31G**
    Blend: 6-31G**
    Number of shells: 45
    Number of basis functions: 110
    Number of Cartesian functions: 110
    Spherical Harmonics?: false
    Max angular momentum: 2

   => Loading Basis Set <=

    Name: (6-31G** AUX)
    Role: JKFIT
    Keyword: DF_BASIS_SCF
    atoms 1-2 entry C          line   121 file /afs/crc.nd.edu/user/b/bagbodek/psi4conda/share/psi4/basis/cc-pvdz-jkfit.gbs 
    atoms 3   entry H          line    51 file /afs/crc.nd.edu/user/b/bagbodek/psi4conda/share/psi4/basis/cc-pvdz-jkfit.gbs 
    atoms 4-8 entry F          line   271 file /afs/crc.nd.edu/user/b/bagbodek/psi4conda/share/psi4/basis/cc-pvdz-jkfit.gbs 

   => Loading Basis Set <=

    Name: 6-31G**
    Role: ORBITAL
    Keyword: BASIS
    atoms 1-2 entry C          line   115 file /afs/crc.nd.edu/user/b/bagbodek/psi4conda/share/psi4/basis/6-31gss.gbs 
    atoms 3   entry H          line    44 file /afs/crc.nd.edu/user/b/bagbodek/psi4conda/share/psi4/basis/6-31gss.gbs 
    atoms 4-8 entry F          line   166 file /afs/crc.nd.edu/user/b/bagbodek/psi4conda/share/psi4/basis/6-31gss.gbs 

  Reading orbitals from file /tmp/Psi4_R125_273K_output.c2hf5.2714632.180.npy, no projection.

  ==> Integral Setup <==

  DFHelper Memory: AOs need 0.058 GiB; user supplied 1.397 GiB. Using in-core AOs.

  ==> MemDFJK: Density-Fitted J/K Matrices <==

    J tasked:                   Yes
    K tasked:                   Yes
    wK tasked:                   No
    OpenMP threads:               1
    Memory [MiB]:              1430
    Algorithm:                 Core
    Schwarz Cutoff:           1E-12
    Mask sparsity (%):       1.5537
    Fitting Condition:        1E-10

   => Auxiliary Basis Set <=

  Basis Set: (6-31G** AUX)
    Blend: CC-PVDZ-JKFIT
    Number of shells: 177
    Number of basis functions: 592
    Number of Cartesian functions: 592
    Spherical Harmonics?: false
    Max angular momentum: 3

  Minimum eigenvalue in the overlap matrix is 1.9215760601E-03.
  Reciprocal condition number of the overlap matrix is 2.9275258661E-04.
    Using symmetric orthogonalization.

  ==> Pre-Iterations <==

  SCF Guess: Orbitals guess was supplied from a previous computation.

   -------------------------------------------------------
    Irrep   Nso     Nmo     Nalpha   Nbeta   Ndocc  Nsocc
   -------------------------------------------------------
     A        110     110      29      29      29       0
   -------------------------------------------------------
    Total     110     110      29      29      29       0
   -------------------------------------------------------

  ==> Iterations <==

                           Total Energy        Delta E     RMS |[F,P]|

   @DF-RHF iter   0:  -573.51057385432591   -5.73511e+02   1.88232e-04 
   @DF-RHF iter   1:  -573.51342373869079   -2.84988e-03   3.21392e-05 DIIS
   @DF-RHF iter   2:  -573.51343423428057   -1.04956e-05   1.59600e-05 DIIS
   @DF-RHF iter   3:  -573.51343632443900   -2.09016e-06   8.06838e-06 DIIS
   @DF-RHF iter   4:  -573.51343700142763   -6.76989e-07   8.85055e-07 DIIS
   @DF-RHF iter   5:  -573.51343701159158   -1.01639e-08   2.36613e-07 DIIS
   @DF-RHF iter   6:  -573.51343701225221   -6.60634e-10   8.00036e-08 DIIS
   @DF-RHF iter   7:  -573.51343701231906   -6.68479e-11   2.67148e-08 DIIS
   @DF-RHF iter   8:  -573.51343701232781   -8.75389e-12   8.30286e-09 DIIS
   @DF-RHF iter   9:  -573.51343701232645    1.36424e-12   1.98062e-09 DIIS
   @DF-RHF iter  10:  -573.51343701232634    1.13687e-13   4.43592e-10 DIIS
   @DF-RHF iter  11:  -573.51343701232815   -1.81899e-12   1.29142e-10 DIIS
   @DF-RHF iter  12:  -573.51343701232713    1.02318e-12   4.57832e-11 DIIS
  Energy and wave function converged.


  ==> Post-Iterations <==

    Orbital Energies [Eh]
    ---------------------

    Doubly Occupied:                                                      

       1A    -26.365981     2A    -26.365893     3A    -26.363567  
       4A    -26.347550     5A    -26.347472     6A    -11.536187  
       7A    -11.453124     8A     -1.748530     9A     -1.688645  
      10A     -1.654254    11A     -1.652513    12A     -1.628903  
      13A     -1.080460    14A     -0.944489    15A     -0.856909  
      16A     -0.845318    17A     -0.844409    18A     -0.797958  
      19A     -0.780275    20A     -0.721557    21A     -0.720614  
      22A     -0.718783    23A     -0.694631    24A     -0.677729  
      25A     -0.676521    26A     -0.664074    27A     -0.653939  
      28A     -0.634774    29A     -0.557668  

    Virtual:                                                              

      30A      0.241614    31A      0.266901    32A      0.292310  
      33A      0.410265    34A      0.428508    35A      0.444413  
      36A      0.486698    37A      0.664427    38A      0.695205  
      39A      0.723746    40A      0.749605    41A      0.760322  
      42A      0.819642    43A      0.895878    44A      1.029157  
      45A      1.146668    46A      1.271618    47A      1.290353  
      48A      1.293668    49A      1.355322    50A      1.363268  
      51A      1.402909    52A      1.451832    53A      1.583928  
      54A      1.589897    55A      1.599413    56A      1.615571  
      57A      1.632102    58A      1.637800    59A      1.645820  
      60A      1.660800    61A      1.670397    62A      1.690922  
      63A      1.779952    64A      1.782440    65A      1.878582  
      66A      1.910555    67A      1.942878    68A      1.996065  
      69A      2.019285    70A      2.053941    71A      2.074232  
      72A      2.094554    73A      2.103786    74A      2.125903  
      75A      2.144496    76A      2.178444    77A      2.258975  
      78A      2.276747    79A      2.294024    80A      2.314767  
      81A      2.331640    82A      2.335020    83A      2.345364  
      84A      2.409526    85A      2.410311    86A      2.498128  
      87A      2.601034    88A      2.637105    89A      2.703722  
      90A      2.729086    91A      2.729406    92A      2.938109  
      93A      3.069159    94A      3.081249    95A      3.112950  
      96A      3.219277    97A      3.254755    98A      3.373485  
      99A      3.401829   100A      3.404896   101A      3.427518  
     102A      3.473359   103A      3.675062   104A      4.449445  
     105A      4.582179   106A      4.759611   107A      4.952108  
     108A      5.320115   109A      5.385292   110A      5.656207  

    Final Occupation by Irrep:
              A 
    DOCC [    29 ]

  @DF-RHF Final Energy:  -573.51343701232713

   => Energetics <=

    Nuclear Repulsion Energy =            359.3861595860828402
    One-Electron Energy =               -1513.7537392487670331
    Two-Electron Energy =                 580.8541426503570619
    Total Energy =                       -573.5134370123271310

Computation Completed


Properties will be evaluated at   0.000000,   0.000000,   0.000000 [a0]

Properties computed using the SCF density matrix


 Multipole Moments:

 ------------------------------------------------------------------------------------
     Multipole            Electronic (a.u.)      Nuclear  (a.u.)        Total (a.u.)
 ------------------------------------------------------------------------------------

 L = 1.  Multiply by 2.5417464519 to convert [e a0] to [Debye]
 Dipole X            :         -1.2286552            1.5049042            0.2762490
 Dipole Y            :          0.0653728           -0.0624508            0.0029220
 Dipole Z            :          0.8475294           -1.4839417           -0.6364123
 Magnitude           :                                                    0.6937887

[...]
    Vibrational S          10.731 [cal/(mol K)]       44.899 [J/(mol K)]       0.01710107 [mEh/K]
  Total S                  77.589 [cal/(mol K)]      324.634 [J/(mol K)]       0.12364654 [mEh/K]
  Correction S              0.000 [cal/(mol K)]        0.000 [J/(mol K)]       0.00000000 [mEh/K]

  Constant volume heat capacity, Cv
    Electronic Cv           0.000 [cal/(mol K)]        0.000 [J/(mol K)]       0.00000000 [mEh/K]
    Translational Cv        2.981 [cal/(mol K)]       12.472 [J/(mol K)]       0.00475022 [mEh/K]
    Rotational Cv           2.981 [cal/(mol K)]       12.472 [J/(mol K)]       0.00475022 [mEh/K]
    Vibrational Cv         13.084 [cal/(mol K)]       54.742 [J/(mol K)]       0.02085004 [mEh/K]
  Total Cv                 19.045 [cal/(mol K)]       79.685 [J/(mol K)]       0.03035047 [mEh/K]
  Correction Cv             0.000 [cal/(mol K)]        0.000 [J/(mol K)]       0.00000000 [mEh/K]

  Constant pressure heat capacity, Cp
    Electronic Cp           0.000 [cal/(mol K)]        0.000 [J/(mol K)]       0.00000000 [mEh/K]
    Translational Cp        4.968 [cal/(mol K)]       20.786 [J/(mol K)]       0.00791703 [mEh/K]
    Rotational Cp           2.981 [cal/(mol K)]       12.472 [J/(mol K)]       0.00475022 [mEh/K]
    Vibrational Cp         13.084 [cal/(mol K)]       54.742 [J/(mol K)]       0.02085004 [mEh/K]
  Total Cp                 21.032 [cal/(mol K)]       88.000 [J/(mol K)]       0.03351728 [mEh/K]
  Correction Cp             0.000 [cal/(mol K)]        0.000 [J/(mol K)]       0.00000000 [mEh/K]

  ==> Thermochemistry Energy Analysis <==

  Raw electronic energy, E0
  Total E0, Electronic energy at well bottom at 0 [K]                 -574.64603949 [Eh]

  Zero-point energy, ZPE_vib = Sum_i nu_i / 2
    Electronic ZPE          0.000 [kcal/mol]        0.000 [kJ/mol]       0.00000000 [Eh]
    Translational ZPE       0.000 [kcal/mol]        0.000 [kJ/mol]       0.00000000 [Eh]
    Rotational ZPE          0.000 [kcal/mol]        0.000 [kJ/mol]       0.00000000 [Eh]
    Vibrational ZPE        24.421 [kcal/mol]      102.179 [kJ/mol]       0.03891785 [Eh]        8541.481 [cm^-1]
  Correction ZPE           24.421 [kcal/mol]      102.179 [kJ/mol]       0.03891785 [Eh]        8541.481 [cm^-1]
  Total ZPE, Electronic energy at 0 [K]                               -574.60712164 [Eh]

  Thermal Energy, E (includes ZPE)
    Electronic E            0.000 [kcal/mol]        0.000 [kJ/mol]       0.00000000 [Eh]
    Translational E         0.814 [kcal/mol]        3.407 [kJ/mol]       0.00129752 [Eh]
    Rotational E            0.814 [kcal/mol]        3.407 [kJ/mol]       0.00129752 [Eh]
    Vibrational E          26.112 [kcal/mol]      109.254 [kJ/mol]       0.04161254 [Eh]
  Correction E             27.741 [kcal/mol]      116.067 [kJ/mol]       0.04420758 [Eh]
  Total E, Electronic energy at  273.15 [K]                           -574.60183191 [Eh]

  Enthalpy, H_trans = E_trans + k_B * T
    Electronic H            0.000 [kcal/mol]        0.000 [kJ/mol]       0.00000000 [Eh]
    Translational H         1.357 [kcal/mol]        5.678 [kJ/mol]       0.00216254 [Eh]
    Rotational H            0.814 [kcal/mol]        3.407 [kJ/mol]       0.00129752 [Eh]
    Vibrational H          26.112 [kcal/mol]      109.254 [kJ/mol]       0.04161254 [Eh]
  Correction H             28.283 [kcal/mol]      118.338 [kJ/mol]       0.04507259 [Eh]
  Total H, Enthalpy at  273.15 [K]                                    -574.60096690 [Eh]

  Gibbs free energy, G = H - T * S
    Electronic G            0.000 [kcal/mol]        0.000 [kJ/mol]       0.00000000 [Eh]
    Translational G        -9.522 [kcal/mol]      -39.838 [kJ/mol]      -0.01517358 [Eh]
    Rotational G           -6.570 [kcal/mol]      -27.487 [kJ/mol]      -0.01046926 [Eh]
    Vibrational G          23.181 [kcal/mol]       96.990 [kJ/mol]       0.03694138 [Eh]
  Correction G              7.090 [kcal/mol]       29.664 [kJ/mol]       0.01129854 [Eh]
  Total G, Free enthalpy at  273.15 [K]                               -574.63474095 [Eh]


  ==> Harmonic Vibrational Analysis <==

  non-mass-weighted Hessian:       Symmetric? True   Hermitian? True   Lin Dep Dim?  3 (0)
  projection of translations (True) and rotations (True) removed 6 degrees of freedom (6)
  total projector:                 Symmetric? True   Hermitian? True   Lin Dep Dim?  6 (6)
  mass-weighted Hessian:           Symmetric? True   Hermitian? True   Lin Dep Dim?  3 (0)
  pre-proj  low-frequency mode:    0.0000i [cm^-1]
  pre-proj  low-frequency mode:    0.0000i [cm^-1]
  pre-proj  low-frequency mode:    0.0000  [cm^-1]
  pre-proj  low-frequency mode:    0.0000  [cm^-1]
  pre-proj  low-frequency mode:    1.5177  [cm^-1]
  pre-proj  low-frequency mode:    3.1301  [cm^-1]
  pre-proj  low-frequency mode:   78.0552  [cm^-1]
  pre-proj  all modes:['3.0618i' '0.0000i' '0.0000' '0.0000' '1.5177' '3.1301' '78.0552'
 '210.1640' '245.7010' '365.8152' '418.0919' '518.5687' '575.9855'
 '588.8084' '728.1553' '897.7389' '1173.0779' '1201.7157' '1252.7106'
 '1282.8229' '1373.3875' '1442.2872' '1518.6280' '3211.2510']
  projected mass-weighted Hessian: Symmetric? True   Hermitian? True   Lin Dep Dim?  6 (6)
  post-proj low-frequency mode:    0.0000i [cm^-1] (TR)
  post-proj low-frequency mode:    0.0000i [cm^-1] (TR)
  post-proj low-frequency mode:    0.0000i [cm^-1] (TR)
  post-proj low-frequency mode:    0.0000  [cm^-1] (TR)
  post-proj low-frequency mode:    0.0000  [cm^-1] (TR)
  post-proj low-frequency mode:    0.0000  [cm^-1] (TR)
  post-proj low-frequency mode:   78.0524  [cm^-1] (V)
  post-proj  all modes:['0.0000i' '0.0000i' '0.0000i' '0.0000' '0.0000' '0.0000' '78.0524'
 '210.1639' '245.7010' '365.8152' '418.0919' '518.5687' '575.9855'
 '588.8084' '728.1553' '897.7389' '1173.0779' '1201.7157' '1252.7106'
 '1282.8229' '1373.3875' '1442.2872' '1518.6280' '3211.2510']

  Vibration                       7                   8                   9           
  Freq [cm^-1]                 78.0524             210.1639            245.7010       
  Irrep                           A                   A                   A           
  Reduced mass [u]             13.5791             18.6494             14.1721        
  Force const [mDyne/A]         0.0487              0.4853              0.5041        
  Turning point v=0 [a0]        0.3370              0.1753              0.1859        
  RMS dev v=0 [a0 u^1/2]        0.8782              0.5352              0.4950        
  IR activ [km/mol]             1.1704              3.5018              5.5579        
  Char temp [K]                112.3000            302.3791            353.5091       
  ----------------------------------------------------------------------------------
      1   C                0.01  0.12  0.00    0.01  0.15  0.01    0.06 -0.00 -0.08   
      2   C                0.00  0.04  0.00    0.01  0.16  0.01    0.10  0.00 -0.21   
      3   H                0.04  0.54  0.02    0.00  0.01  0.00    0.49 -0.04  0.07   
      4   F               -0.07 -0.12  0.43    0.48 -0.09 -0.02   -0.28  0.03  0.16   
      5   F                0.06 -0.09 -0.44   -0.49 -0.01  0.02   -0.28  0.01  0.16   
      6   F               -0.06 -0.11 -0.26   -0.49 -0.02  0.02   -0.12 -0.01 -0.07   
      7   F                0.03  0.32  0.01   -0.00  0.01  0.00    0.67 -0.05 -0.01   
      8   F                0.04 -0.14  0.25    0.48 -0.09 -0.03   -0.11  0.04 -0.07   

  Vibration                       10                  11                  12          
  Freq [cm^-1]                 365.8152            418.0919            518.5687       
  Irrep                           A                   A                   A           
  Reduced mass [u]             18.1259             15.5168             15.5182        
  Force const [mDyne/A]         1.4291              1.5981              2.4587        
  Turning point v=0 [a0]        0.1348              0.1362              0.1223        
  RMS dev v=0 [a0 u^1/2]        0.4057              0.3795              0.3407        
  IR activ [km/mol]             0.0821              1.8338             12.0674        
  Char temp [K]                526.3266            601.5412            746.1049       
  ----------------------------------------------------------------------------------
      1   C               -0.13  0.01 -0.06   -0.02 -0.29 -0.01   -0.08 -0.00  0.23   
      2   C                0.10 -0.01  0.11    0.00  0.04  0.00   -0.01 -0.01  0.28   
      3   H               -0.16  0.02 -0.07   -0.03 -0.40 -0.02   -0.34  0.02  0.14   
      4   F               -0.38  0.22 -0.19   -0.31 -0.16 -0.10   -0.00  0.21 -0.08   
      5   F               -0.41 -0.14 -0.21    0.28 -0.21  0.09   -0.04 -0.20 -0.09   
      6   F                0.44  0.11  0.16   -0.28  0.06  0.25    0.01 -0.36 -0.31   
      7   F               -0.04  0.00  0.07    0.04  0.45  0.02    0.04 -0.02  0.42   
      8   F                0.41 -0.19  0.15    0.29  0.03 -0.25    0.07  0.38 -0.28   

  Vibration                       13                  14                  15          
  Freq [cm^-1]                 575.9855            588.8084            728.1553       
  Irrep                           A                   A                   A           
  Reduced mass [u]              9.7592             16.1161             13.2377        
  Force const [mDyne/A]         1.9076              3.2920              4.1353        
  Turning point v=0 [a0]        0.1464              0.1126              0.1118        
  RMS dev v=0 [a0 u^1/2]        0.3233              0.3197              0.2875        
  IR activ [km/mol]            19.9043              1.4442             39.5326        
  Char temp [K]                828.7149            847.1641           1047.6534       
  ----------------------------------------------------------------------------------
      1   C                0.30 -0.03  0.15    0.01  0.15  0.01   -0.23  0.01  0.31   
      2   C                0.13 -0.01 -0.09   -0.03 -0.34 -0.01   -0.33  0.03 -0.06   
      3   H                0.62 -0.06  0.27    0.03  0.32  0.01   -0.38  0.02  0.26   
      4   F                0.05  0.38 -0.01    0.19  0.12  0.07    0.14  0.16  0.01   
      5   F               -0.01 -0.38 -0.04   -0.17  0.16 -0.06    0.11 -0.18 -0.01   
      6   F               -0.13 -0.01  0.10    0.17 -0.30  0.36    0.01  0.40 -0.15   
      7   F               -0.07  0.01 -0.20    0.03  0.37  0.01    0.16 -0.02  0.17   
      8   F               -0.13  0.03  0.10   -0.22 -0.24 -0.38   -0.05 -0.39 -0.18   

  Vibration                       16                  17                  18          
  Freq [cm^-1]                 897.7389           1173.0779           1201.7157       
  Irrep                           A                   A                   A           
  Reduced mass [u]              5.8489              6.3573              4.8912        
  Force const [mDyne/A]         2.7773              5.1544              4.1616        
  Turning point v=0 [a0]        0.1514              0.1271              0.1431        
  RMS dev v=0 [a0 u^1/2]        0.2590              0.2265              0.2238        
  IR activ [km/mol]            70.1420             142.4567            115.5633       
  Char temp [K]               1291.6464           1687.7979           1729.0013       
  ----------------------------------------------------------------------------------
      1   C                0.35 -0.02 -0.27    0.17 -0.04  0.48    0.04  0.46  0.02   
      2   C                0.03 -0.00 -0.01    0.17 -0.01 -0.04   -0.01 -0.11 -0.00   
      3   H                0.80 -0.06 -0.13    0.47 -0.07  0.60    0.07  0.83  0.04   
      4   F               -0.04 -0.00  0.02   -0.08 -0.15 -0.16   -0.06 -0.15 -0.12   
      5   F               -0.04  0.01  0.02   -0.06  0.18 -0.15    0.04 -0.16  0.10   
      6   F               -0.03  0.11 -0.07   -0.04  0.04 -0.02    0.01  0.02 -0.01   
      7   F               -0.14 -0.00  0.29   -0.01 -0.00  0.03    0.00  0.01  0.00   
      8   F               -0.04 -0.10 -0.08   -0.04 -0.04 -0.02   -0.00  0.02  0.01   

  Vibration                       19                  20                  21          
  Freq [cm^-1]                1252.7106           1282.8229           1373.3875       
  Irrep                           A                   A                   A           
  Reduced mass [u]              4.3007             13.1674              3.0776        
  Force const [mDyne/A]         3.9764             12.7668              3.4201        
  Turning point v=0 [a0]        0.1495              0.0844              0.1688        
  RMS dev v=0 [a0 u^1/2]        0.2192              0.2166              0.2094        
  IR activ [km/mol]            242.6711            407.6611            182.4563       
  Char temp [K]               1802.3716           1845.6965           1975.9989       
  ----------------------------------------------------------------------------------
      1   C                0.09 -0.01 -0.03    0.01  0.14  0.01    0.05 -0.00 -0.02   
      2   C                0.25 -0.04  0.39    0.07  0.90  0.04   -0.26  0.01  0.29   
      3   H               -0.79  0.08 -0.33   -0.01 -0.03 -0.00    0.86 -0.08  0.27   
      4   F               -0.03  0.00  0.02   -0.05 -0.06 -0.04   -0.00 -0.02 -0.02   
      5   F               -0.03  0.00  0.02    0.04 -0.07  0.03   -0.00  0.02 -0.02   
      6   F               -0.06  0.10 -0.07    0.08 -0.24  0.09    0.02 -0.01 -0.01   
      7   F                0.01  0.00 -0.10   -0.00 -0.05 -0.00    0.05  0.00 -0.11   
      8   F               -0.07 -0.08 -0.07   -0.12 -0.22 -0.11    0.02  0.00 -0.01   

  Vibration                       22                  23                  24          
  Freq [cm^-1]                1442.2872           1518.6280           3211.2510       
  Irrep                           A                   A                   A           
  Reduced mass [u]              1.2512              2.7505              1.0892        
  Force const [mDyne/A]         1.5334              3.7374              6.6175        
  Turning point v=0 [a0]        0.2583              0.1698              0.1855        
  RMS dev v=0 [a0 u^1/2]        0.2043              0.1991              0.1369        
  IR activ [km/mol]            20.4262              2.9412             20.2244        
  Char temp [K]               2075.1302           2184.9676           4620.2752       
  ----------------------------------------------------------------------------------
      1   C               -0.01 -0.14 -0.01    0.29 -0.03  0.07    0.03  0.00 -0.08   
      2   C                0.00  0.03  0.00   -0.24  0.02 -0.05   -0.00  0.00 -0.00   
      3   H                0.08  0.99  0.04   -0.84  0.08 -0.36   -0.34 -0.01  0.94   
      4   F                0.01  0.01 -0.02   -0.03 -0.01 -0.01   -0.00 -0.00  0.00   
      5   F               -0.01  0.01  0.02   -0.03  0.02 -0.00   -0.00  0.00  0.00   
      6   F               -0.00 -0.00 -0.00    0.02 -0.03  0.02    0.00 -0.00  0.00   
      7   F               -0.00 -0.00 -0.00    0.03 -0.00 -0.02   -0.00  0.00  0.00   
      8   F                0.00 -0.00  0.00    0.03  0.02  0.02    0.00  0.00  0.00   

  ==> Thermochemistry Components <==

  Entropy, S
    Electronic S            0.000 [cal/(mol K)]        0.000 [J/(mol K)]       0.00000000 [mEh/K] (multiplicity = 1)
    Translational S        39.826 [cal/(mol K)]      166.634 [J/(mol K)]       0.06346737 [mEh/K] (mol. weight = 119.9998 [u], P = 101325.00 [Pa])
    Rotational S           27.032 [cal/(mol K)]      113.102 [J/(mol K)]       0.04307810 [mEh/K] (symmetry no. = 1)
    Vibrational S          10.731 [cal/(mol K)]       44.899 [J/(mol K)]       0.01710107 [mEh/K]
  Total S                  77.589 [cal/(mol K)]      324.634 [J/(mol K)]       0.12364654 [mEh/K]
  Correction S              0.000 [cal/(mol K)]        0.000 [J/(mol K)]       0.00000000 [mEh/K]

  Constant volume heat capacity, Cv
    Electronic Cv           0.000 [cal/(mol K)]        0.000 [J/(mol K)]       0.00000000 [mEh/K]
    Translational Cv        2.981 [cal/(mol K)]       12.472 [J/(mol K)]       0.00475022 [mEh/K]
    Rotational Cv           2.981 [cal/(mol K)]       12.472 [J/(mol K)]       0.00475022 [mEh/K]
    Vibrational Cv         13.084 [cal/(mol K)]       54.742 [J/(mol K)]       0.02085004 [mEh/K]
  Total Cv                 19.045 [cal/(mol K)]       79.685 [J/(mol K)]       0.03035047 [mEh/K]
  Correction Cv             0.000 [cal/(mol K)]        0.000 [J/(mol K)]       0.00000000 [mEh/K]

  Constant pressure heat capacity, Cp
    Electronic Cp           0.000 [cal/(mol K)]        0.000 [J/(mol K)]       0.00000000 [mEh/K]
    Translational Cp        4.968 [cal/(mol K)]       20.786 [J/(mol K)]       0.00791703 [mEh/K]
    Rotational Cp           2.981 [cal/(mol K)]       12.472 [J/(mol K)]       0.00475022 [mEh/K]
    Vibrational Cp         13.084 [cal/(mol K)]       54.742 [J/(mol K)]       0.02085004 [mEh/K]
  Total Cp                 21.032 [cal/(mol K)]       88.000 [J/(mol K)]       0.03351728 [mEh/K]
  Correction Cp             0.000 [cal/(mol K)]        0.000 [J/(mol K)]       0.00000000 [mEh/K]

  ==> Thermochemistry Energy Analysis <==

  Raw electronic energy, E0
  Total E0, Electronic energy at well bottom at 0 [K]                 -574.64603949 [Eh]

  Zero-point energy, ZPE_vib = Sum_i nu_i / 2
    Electronic ZPE          0.000 [kcal/mol]        0.000 [kJ/mol]       0.00000000 [Eh]
    Translational ZPE       0.000 [kcal/mol]        0.000 [kJ/mol]       0.00000000 [Eh]
    Rotational ZPE          0.000 [kcal/mol]        0.000 [kJ/mol]       0.00000000 [Eh]
    Vibrational ZPE        24.421 [kcal/mol]      102.179 [kJ/mol]       0.03891785 [Eh]        8541.481 [cm^-1]
  Correction ZPE           24.421 [kcal/mol]      102.179 [kJ/mol]       0.03891785 [Eh]        8541.481 [cm^-1]
  Total ZPE, Electronic energy at 0 [K]                               -574.60712164 [Eh]

  Thermal Energy, E (includes ZPE)
    Electronic E            0.000 [kcal/mol]        0.000 [kJ/mol]       0.00000000 [Eh]
    Translational E         0.814 [kcal/mol]        3.407 [kJ/mol]       0.00129752 [Eh]
    Rotational E            0.814 [kcal/mol]        3.407 [kJ/mol]       0.00129752 [Eh]
    Vibrational E          26.112 [kcal/mol]      109.254 [kJ/mol]       0.04161254 [Eh]
  Correction E             27.741 [kcal/mol]      116.067 [kJ/mol]       0.04420758 [Eh]
  Total E, Electronic energy at  273.15 [K]                           -574.60183191 [Eh]

  Enthalpy, H_trans = E_trans + k_B * T
    Electronic H            0.000 [kcal/mol]        0.000 [kJ/mol]       0.00000000 [Eh]
    Translational H         1.357 [kcal/mol]        5.678 [kJ/mol]       0.00216254 [Eh]
    Rotational H            0.814 [kcal/mol]        3.407 [kJ/mol]       0.00129752 [Eh]
    Vibrational H          26.112 [kcal/mol]      109.254 [kJ/mol]       0.04161254 [Eh]
  Correction H             28.283 [kcal/mol]      118.338 [kJ/mol]       0.04507259 [Eh]
  Total H, Enthalpy at  273.15 [K]                                    -574.60096690 [Eh]

  Gibbs free energy, G = H - T * S
    Electronic G            0.000 [kcal/mol]        0.000 [kJ/mol]       0.00000000 [Eh]
    Translational G        -9.522 [kcal/mol]      -39.838 [kJ/mol]      -0.01517358 [Eh]
    Rotational G           -6.570 [kcal/mol]      -27.487 [kJ/mol]      -0.01046926 [Eh]
    Vibrational G          23.181 [kcal/mol]       96.990 [kJ/mol]       0.03694138 [Eh]
  Correction G              7.090 [kcal/mol]       29.664 [kJ/mol]       0.01129854 [Eh]
  Total G, Free enthalpy at  273.15 [K]                               -574.63474095 [Eh]

    Psi4 stopped on: Monday, 02 January 2023 05:51PM
    Psi4 wall time for execution: 0:04:40.67

*** Psi4 exiting successfully. Buy a developer a beer!
