LAMMPS data file
# 1000 r125 molecules

5 atom types
4 bond types
6 angle types
3 dihedral types

8000 atoms
7000 bonds
12000 angles
15000 dihedrals

-28.863 28.863 xlo xhi
-28.863 28.863 ylo yhi
-28.863 28.863 zlo zhi

Masses

1   12.011  # c3_1 r125
2   12.011  # c3_2 r125
3   18.998  # f_1 r125
4    1.008  # h2 r125
5   18.998  # f_2 r125

Pair Coeffs

1 0.118002136972 3.805  # c3_1 r125
2 0.0546361757784 3.617  # c3_2 r125
3 0.056267669934 3.201  # f_1 r125
4 0.0129049001784 2.488  # h2 r125
5 0.0350403610788 2.644  # f_2 r125

Bond Coeffs

1 300.899984468  1.538  # harmonic r125 c3_1 c3_2
2 356.899978077  1.350  # harmonic r125 c3_1 f_1
3 331.699851784  1.096  # harmonic r125 c3_1 h2
4 356.899978077  1.350  # harmonic r125 c3_2 f_2

Angle Coeffs

1 66.0999559061  109.24  # harmonic r125 c3_1 c3_2 f_2
2 66.0999559061  109.24  # harmonic r125 c3_2 c3_1 f_1
3 46.2000990557  110.22  # harmonic r125 c3_2 c3_1 h2
4 51.0999469722  108.79  # harmonic r125 f_1 c3_1 h2
5 70.9000462019  107.36  # harmonic r125 f_1 c3_1 f_1
6 70.9000462019  107.36  # harmonic r125 f_2 c3_2 f_2

Dihedral Coeffs

1 0.0  3 0 0.0  # charmm r125 f_1 c3_1 c3_2 f_2
2 1.1999927659  1 180 0.0  # charmm r125 f_1 c3_1 c3_2 f_2
3 0.155558297808  3 0 0.0  # charmm r125 h2 c3_1 c3_2 f_2

Atoms

1 1 1  0.224067   -8.20300    1.57600    8.09400  # c3_1 C1 r125 1
2 1 2  0.500886   -7.00700    2.54300    7.97900  # c3_2 C2 r125 1
3 1 3 -0.167131   -8.09500    0.87300    9.24700  # f_1 F1 r125 1
4 1 4  0.121583   -8.22700    0.88600    7.24700  # h2 H1 r125 1
5 1 3 -0.167131   -9.35100    2.29400    8.12700  # f_1 F2 r125 1
6 1 5 -0.170758   -5.86100    1.84000    7.94500  # f_2 F3 r125 1
7 1 5 -0.170758   -6.95600    3.39600    9.00500  # f_2 F4 r125 1
8 1 5 -0.170758   -7.10400    3.24400    6.83800  # f_2 F5 r125 1
9 2 1  0.224067  -12.80100   -2.85700   18.25400  # c3_1 C1 r125 2
10 2 2  0.500886  -14.32600   -3.07000   18.18400  # c3_2 C2 r125 2
11 2 3 -0.167131  -12.54600   -1.68300   18.87900  # f_1 F1 r125 2
12 2 4  0.121583  -12.36500   -2.84000   17.25200  # h2 H1 r125 2
13 2 3 -0.167131  -12.24600   -3.86300   18.97200  # f_1 F2 r125 2
14 2 5 -0.170758  -14.88700   -2.07700   17.47200  # f_2 F3 r125 2
15 2 5 -0.170758  -14.88200   -3.09500   19.39700  # f_2 F4 r125 2
16 2 5 -0.170758  -14.59000   -4.23300   17.56400  # f_2 F5 r125 2
17 3 1  0.224067  -13.42100  -17.43000    7.17400  # c3_1 C1 r125 3
18 3 2  0.500886  -12.34900  -16.35400    6.91100  # c3_2 C2 r125 3
19 3 3 -0.167131  -14.61000  -16.99800    6.69000  # f_1 F1 r125 3
20 3 4  0.121583  -13.51400  -17.63200    8.24300  # h2 H1 r125 3
21 3 3 -0.167131  -13.07300  -18.56800    6.52600  # f_1 F2 r125 3
22 3 5 -0.170758  -12.68300  -15.21900    7.55100  # f_2 F3 r125 3
23 3 5 -0.170758  -12.21700  -16.08900    5.60900  # f_2 F4 r125 3
24 3 5 -0.170758  -11.16500  -16.77100    7.39000  # f_2 F5 r125 3
25 4 1  0.224067    5.86200    4.10700  -12.45200  # c3_1 C1 r125 4
26 4 2  0.500886    5.03800    2.80400  -12.43800  # c3_2 C2 r125 4
27 4 3 -0.167131    5.63700    4.78600  -11.30200  # f_1 F1 r125 4
28 4 4  0.121583    5.58700    4.73100  -13.30500  # h2 H1 r125 4
29 4 3 -0.167131    7.17900    3.79700  -12.52400  # f_1 F2 r125 4
30 4 5 -0.170758    3.72900    3.10000  -12.36700  # f_2 F3 r125 4
31 4 5 -0.170758    5.35800    2.02400  -11.40200  # f_2 F4 r125 4
32 4 5 -0.170758    5.25400    2.12300  -13.57500  # f_2 F5 r125 4
33 5 1  0.224067    4.45200   16.14900   -4.60100  # c3_1 C1 r125 5
34 5 2  0.500886    5.82800   15.56300   -4.97400  # c3_2 C2 r125 5
35 5 3 -0.167131    3.94100   15.45000   -3.56000  # f_1 F1 r125 5
36 5 4  0.121583    3.76500   16.09600   -5.44900  # h2 H1 r125 5
37 5 3 -0.167131    4.60800   17.44100   -4.22400  # f_1 F2 r125 5
38 5 5 -0.170758    5.68500   14.28100   -5.35100  # f_2 F3 r125 5
39 5 5 -0.170758    6.68600   15.61700   -3.95200  # f_2 F4 r125 5
40 5 5 -0.170758    6.34400   16.25000   -6.00800  # f_2 F5 r125 5
41 6 1  0.224067   18.97100  -19.99200   21.61800  # c3_1 C1 r125 6
42 6 2  0.500886   18.53700  -18.80200   22.49700  # c3_2 C2 r125 6
43 6 3 -0.167131   18.20600  -21.06800   21.92100  # f_1 F1 r125 6
44 6 4  0.121583   20.02300  -20.23400   21.78400  # h2 H1 r125 6
45 6 3 -0.167131   18.77900  -19.67300   20.31500  # f_1 F2 r125 6
46 6 5 -0.170758   18.72300  -19.10700   23.79300  # f_2 F3 r125 6
47 6 5 -0.170758   17.25300  -18.48800   22.31100  # f_2 F4 r125 6
48 6 5 -0.170758   19.29100  -17.72900   22.20500  # f_2 F5 r125 6
49 7 1  0.224067  -13.16900  -17.08200  -25.08100  # c3_1 C1 r125 7
50 7 2  0.500886  -14.19200  -16.24800  -24.28600  # c3_2 C2 r125 7
51 7 3 -0.167131  -13.31600  -16.82200  -26.40200  # f_1 F1 r125 7
52 7 4  0.121583  -13.31400  -18.15000  -24.90100  # h2 H1 r125 7
53 7 3 -0.167131  -11.91700  -16.72400  -24.70300  # f_1 F2 r125 7
54 7 5 -0.170758  -15.43800  -16.59500  -24.65300  # f_2 F3 r125 7
55 7 5 -0.170758  -14.03500  -14.93800  -24.49000  # f_2 F4 r125 7
56 7 5 -0.170758  -14.05600  -16.50000  -22.97300  # f_2 F5 r125 7
57 8 1  0.224067  -16.70200   -3.99900   -5.29100  # c3_1 C1 r125 8
58 8 2  0.500886  -15.57300   -3.13900   -5.89200  # c3_2 C2 r125 8
59 8 3 -0.167131  -17.18400   -4.82800   -6.24800  # f_1 F1 r125 8
60 8 4  0.121583  -17.51000   -3.37000   -4.91200  # h2 H1 r125 8
61 8 3 -0.167131  -16.19700   -4.74700   -4.28000  # f_1 F2 r125 8
62 8 5 -0.170758  -16.06200   -2.39200   -6.89700  # f_2 F3 r125 8
63 8 5 -0.170758  -14.57200   -3.88700   -6.36300  # f_2 F4 r125 8
64 8 5 -0.170758  -15.08800   -2.31100   -4.95100  # f_2 F5 r125 8
65 9 1  0.224067   13.72500  -26.55900   12.44200  # c3_1 C1 r125 9
66 9 2  0.500886   14.30300  -26.21400   11.05500  # c3_2 C2 r125 9
67 9 3 -0.167131   12.55600  -27.22300   12.28200  # f_1 F1 r125 9
68 9 4  0.121583   13.55400  -25.65300   13.02700  # h2 H1 r125 9
69 9 3 -0.167131   14.59800  -27.36300   13.09600  # f_1 F2 r125 9
70 9 5 -0.170758   13.44500  -25.41500   10.39600  # f_2 F3 r125 9
71 9 5 -0.170758   14.52100  -27.30700   10.32000  # f_2 F4 r125 9
72 9 5 -0.170758   15.46300  -25.55200   11.20200  # f_2 F5 r125 9
73 10 1  0.224067  -14.10900   12.84200   22.10100  # c3_1 C1 r125 10
74 10 2  0.500886  -14.53200   11.67700   23.01800  # c3_2 C2 r125 10
75 10 3 -0.167131  -12.75700   12.86700   22.01300  # f_1 F1 r125 10
76 10 4  0.121583  -14.46700   13.79600   22.49400  # h2 H1 r125 10
77 10 3 -0.167131  -14.62300   12.64000   20.86400  # f_1 F2 r125 10
78 10 5 -0.170758  -14.02800   11.86700   24.25000  # f_2 F3 r125 10
79 10 5 -0.170758  -14.10500   10.49900   22.55700  # f_2 F4 r125 10
80 10 5 -0.170758  -15.87200   11.64400   23.11300  # f_2 F5 r125 10
81 11 1  0.224067  -16.09500   22.48200    7.08200  # c3_1 C1 r125 11
82 11 2  0.500886  -16.39400   23.45800    8.23800  # c3_2 C2 r125 11
83 11 3 -0.167131  -16.66900   22.95000    5.94800  # f_1 F1 r125 11
84 11 4  0.121583  -16.48500   21.48600    7.30400  # h2 H1 r125 11
85 11 3 -0.167131  -14.75500   22.41400    6.89700  # f_1 F2 r125 11
86 11 5 -0.170758  -17.72200   23.53300    8.43200  # f_2 F3 r125 11
87 11 5 -0.170758  -15.92700   24.68300    7.98900  # f_2 F4 r125 11
88 11 5 -0.170758  -15.83000   23.00200    9.36900  # f_2 F5 r125 11
89 12 1  0.224067    9.25100   -7.28900   -7.49000  # c3_1 C1 r125 12
90 12 2  0.500886   10.67200   -7.88500   -7.44200  # c3_2 C2 r125 12
91 12 3 -0.167131    9.31400   -6.03900   -8.00700  # f_1 F1 r125 12
92 12 4  0.121583    8.81200   -7.25000   -6.49100  # h2 H1 r125 12
93 12 3 -0.167131    8.47800   -8.05600   -8.29700  # f_1 F2 r125 12
94 12 5 -0.170758   11.45000   -7.13200   -6.64400  # f_2 F3 r125 12
95 12 5 -0.170758   11.23100   -7.94300   -8.65300  # f_2 F4 r125 12
96 12 5 -0.170758   10.62200   -9.12600   -6.93000  # f_2 F5 r125 12
97 13 1  0.224067   26.03000   15.51700    4.55300  # c3_1 C1 r125 13
98 13 2  0.500886   24.64200   15.18700    3.96800  # c3_2 C2 r125 13
99 13 3 -0.167131   26.98400   15.16100    3.66000  # f_1 F1 r125 13
100 13 4  0.121583   26.19200   14.98500    5.49300  # h2 H1 r125 13
101 13 3 -0.167131   26.11200   16.85300    4.76900  # f_1 F2 r125 13
102 13 5 -0.170758   24.55000   13.86300    3.75000  # f_2 F3 r125 13
103 13 5 -0.170758   24.42100   15.82700    2.81700  # f_2 F4 r125 13
104 13 5 -0.170758   23.68800   15.53500    4.84700  # f_2 F5 r125 13
105 14 1  0.224067   10.82600   19.46600   24.60700  # c3_1 C1 r125 14
106 14 2  0.500886    9.98300   18.35300   25.26200  # c3_2 C2 r125 14
107 14 3 -0.167131   10.14000   20.63200   24.66400  # f_1 F1 r125 14
108 14 4  0.121583   11.04800   19.22300   23.56500  # h2 H1 r125 14
109 14 3 -0.167131   11.98400   19.60700   25.29600  # f_1 F2 r125 14
110 14 5 -0.170758    8.83100   18.20400   24.58500  # f_2 F3 r125 14
111 14 5 -0.170758    9.69900   18.62800   26.53700  # f_2 F4 r125 14
112 14 5 -0.170758   10.65500   17.19000   25.20900  # f_2 F5 r125 14
113 15 1  0.224067   10.58900   11.84400    6.82800  # c3_1 C1 r125 15
114 15 2  0.500886   11.30500   10.66800    6.13300  # c3_2 C2 r125 15
115 15 3 -0.167131   11.37400   12.31200    7.82700  # f_1 F1 r125 15
116 15 4  0.121583    9.62800   11.52500    7.23700  # h2 H1 r125 15
117 15 3 -0.167131   10.39200   12.83600    5.92600  # f_1 F2 r125 15
118 15 5 -0.170758   11.50600    9.67700    7.01800  # f_2 F3 r125 15
119 15 5 -0.170758   12.48400   11.03400    5.62400  # f_2 F4 r125 15
120 15 5 -0.170758   10.53400   10.19500    5.14000  # f_2 F5 r125 15
121 16 1  0.224067   17.92100   19.48000    1.06700  # c3_1 C1 r125 16
122 16 2  0.500886   18.61400   18.45600    1.98800  # c3_2 C2 r125 16
123 16 3 -0.167131   17.55400   20.55800    1.80000  # f_1 F1 r125 16
124 16 4  0.121583   17.03900   19.04200    0.59400  # h2 H1 r125 16
125 16 3 -0.167131   18.79500   19.87900    0.11200  # f_1 F2 r125 16
126 16 5 -0.170758   17.75500   18.05300    2.94000  # f_2 F3 r125 16
127 16 5 -0.170758   19.69700   18.97000    2.57700  # f_2 F4 r125 16
128 16 5 -0.170758   18.98100   17.38200    1.27000  # f_2 F5 r125 16
129 17 1  0.224067  -10.33600   15.97500    9.78900  # c3_1 C1 r125 17
130 17 2  0.500886  -10.26900   14.97000    8.62200  # c3_2 C2 r125 17
131 17 3 -0.167131  -11.57400   15.93500   10.33700  # f_1 F1 r125 17
132 17 4  0.121583  -10.12200   16.98800    9.44300  # h2 H1 r125 17
133 17 3 -0.167131   -9.43000   15.61800   10.73200  # f_1 F2 r125 17
134 17 5 -0.170758  -11.16400   15.31400    7.67900  # f_2 F3 r125 17
135 17 5 -0.170758  -10.52700   13.72200    9.02200  # f_2 F4 r125 17
136 17 5 -0.170758   -9.04400   15.00200    8.07000  # f_2 F5 r125 17
137 18 1  0.224067   12.09700  -17.81800   -1.76100  # c3_1 C1 r125 18
138 18 2  0.500886   11.32100  -17.89800   -0.43100  # c3_2 C2 r125 18
139 18 3 -0.167131   11.21500  -17.68100   -2.78000  # f_1 F1 r125 18
140 18 4  0.121583   12.69700  -18.71700   -1.91600  # h2 H1 r125 18
141 18 3 -0.167131   12.90600  -16.73100   -1.73600  # f_1 F2 r125 18
142 18 5 -0.170758   10.51500  -18.97400   -0.44400  # f_2 F3 r125 18
143 18 5 -0.170758   10.57900  -16.80800   -0.22000  # f_2 F4 r125 18
144 18 5 -0.170758   12.18700  -18.03500    0.58700  # f_2 F5 r125 18
145 19 1  0.224067    9.19200   -7.43300    0.37800  # c3_1 C1 r125 19
146 19 2  0.500886    7.81000   -8.11900    0.38200  # c3_2 C2 r125 19
147 19 3 -0.167131   10.06400   -8.19900   -0.31900  # f_1 F1 r125 19
148 19 4  0.121583    9.56000   -7.29600    1.39700  # h2 H1 r125 19
149 19 3 -0.167131    9.08500   -6.22800   -0.23200  # f_1 F2 r125 19
150 19 5 -0.170758    7.90400   -9.31600    0.98600  # f_2 F3 r125 19
151 19 5 -0.170758    7.33900   -8.29800   -0.85400  # f_2 F4 r125 19
152 19 5 -0.170758    6.93700   -7.36700    1.07300  # f_2 F5 r125 19
153 20 1  0.224067   -0.11600   -7.02600   17.70500  # c3_1 C1 r125 20
154 20 2  0.500886   -0.32000   -5.52000   17.97000  # c3_2 C2 r125 20
155 20 3 -0.167131   -1.29600   -7.66900   17.87200  # f_1 F1 r125 20
156 20 4  0.121583    0.62700   -7.44300   18.38900  # h2 H1 r125 20
157 20 3 -0.167131    0.29800   -7.19700   16.42600  # f_1 F2 r125 20
158 20 5 -0.170758   -0.73100   -5.33800   19.23700  # f_2 F3 r125 20
159 20 5 -0.170758   -1.22500   -4.98800   17.14600  # f_2 F4 r125 20
160 20 5 -0.170758    0.84600   -4.87300   17.80900  # f_2 F5 r125 20
161 21 1  0.224067  -23.68300  -24.69800    2.36200  # c3_1 C1 r125 21
162 21 2  0.500886  -23.36700  -23.31800    2.97400  # c3_2 C2 r125 21
163 21 3 -0.167131  -24.68100  -24.56200    1.45700  # f_1 F1 r125 21
164 21 4  0.121583  -23.98500  -25.40600    3.13600  # h2 H1 r125 21
165 21 3 -0.167131  -22.57900  -25.16200    1.72800  # f_1 F2 r125 21
166 21 5 -0.170758  -24.45600  -22.84700    3.60700  # f_2 F3 r125 21
167 21 5 -0.170758  -22.99500  -22.43400    2.04600  # f_2 F4 r125 21
168 21 5 -0.170758  -22.37800  -23.44100    3.87500  # f_2 F5 r125 21
169 22 1  0.224067  -19.93800   12.37600   16.55100  # c3_1 C1 r125 22
170 22 2  0.500886  -20.57900   13.40200   17.50600  # c3_2 C2 r125 22
171 22 3 -0.167131  -19.46700   11.33200   17.27400  # f_1 F1 r125 22
172 22 4  0.121583  -19.11900   12.82800   15.98700  # h2 H1 r125 22
173 22 3 -0.167131  -20.88200   11.92000   15.69300  # f_1 F2 r125 22
174 22 5 -0.170758  -19.65100   13.86100   18.36300  # f_2 F3 r125 22
175 22 5 -0.170758  -21.58400   12.87100   18.20700  # f_2 F4 r125 22
176 22 5 -0.170758  -21.04900   14.44300   16.79800  # f_2 F5 r125 22
177 23 1  0.224067   16.06300    8.07000   16.53100  # c3_1 C1 r125 23
178 23 2  0.500886   15.27400    7.03300   15.70600  # c3_2 C2 r125 23
179 23 3 -0.167131   15.63800    9.31400   16.20200  # f_1 F1 r125 23
180 23 4  0.121583   17.13400    7.98700   16.33800  # h2 H1 r125 23
181 23 3 -0.167131   15.82200    7.86200   17.84900  # f_1 F2 r125 23
182 23 5 -0.170758   15.50600    7.23000   14.39700  # f_2 F3 r125 23
183 23 5 -0.170758   13.96000    7.11600   15.92700  # f_2 F4 r125 23
184 23 5 -0.170758   15.68900    5.79600   16.02500  # f_2 F5 r125 23
185 24 1  0.224067   -2.27900    2.45900   -5.94000  # c3_1 C1 r125 24
186 24 2  0.500886   -0.86700    2.64300   -6.53000  # c3_2 C2 r125 24
187 24 3 -0.167131   -3.11100    3.37700   -6.48800  # f_1 F1 r125 24
188 24 4  0.121583   -2.26600    2.58000   -4.85500  # h2 H1 r125 24
189 24 3 -0.167131   -2.73100    1.22000   -6.25300  # f_1 F2 r125 24
190 24 5 -0.170758   -0.40800    3.87000   -6.22500  # f_2 F3 r125 24
191 24 5 -0.170758   -0.85800    2.50100   -7.85800  # f_2 F4 r125 24
192 24 5 -0.170758   -0.03300    1.73800   -5.99200  # f_2 F5 r125 24
193 25 1  0.224067  -24.18200   10.93300  -14.47900  # c3_1 C1 r125 25
194 25 2  0.500886  -23.24700    9.94700  -13.74800  # c3_2 C2 r125 25
195 25 3 -0.167131  -25.03400   11.48200  -13.58200  # f_1 F1 r125 25
196 25 4  0.121583  -24.75000   10.42300  -15.25900  # h2 H1 r125 25
197 25 3 -0.167131  -23.43600   11.92000  -15.03300  # f_1 F2 r125 25
198 25 5 -0.170758  -23.97600    8.96300  -13.19500  # f_2 F3 r125 25
199 25 5 -0.170758  -22.54100   10.54900  -12.78900  # f_2 F4 r125 25
200 25 5 -0.170758  -22.39700    9.39500  -14.63000  # f_2 F5 r125 25
201 26 1  0.224067  -20.20500   13.51200   11.50600  # c3_1 C1 r125 26
202 26 2  0.500886  -20.05100   14.34100   10.21500  # c3_2 C2 r125 26
203 26 3 -0.167131  -21.38500   13.82300   12.09400  # f_1 F1 r125 26
204 26 4  0.121583  -19.38600   13.71700   12.19900  # h2 H1 r125 26
205 26 3 -0.167131  -20.21000   12.19500   11.18700  # f_1 F2 r125 26
206 26 5 -0.170758  -20.04400   15.65100   10.51900  # f_2 F3 r125 26
207 26 5 -0.170758  -21.04200   14.10700    9.35100  # f_2 F4 r125 26
208 26 5 -0.170758  -18.88300   14.04100    9.62400  # f_2 F5 r125 26
209 27 1  0.224067  -18.15100   11.68200  -17.60500  # c3_1 C1 r125 27
210 27 2  0.500886  -18.36600   10.17700  -17.34600  # c3_2 C2 r125 27
211 27 3 -0.167131  -16.94600   12.04900  -17.10600  # f_1 F1 r125 27
212 27 4  0.121583  -18.93800   12.27300  -17.13300  # h2 H1 r125 27
213 27 3 -0.167131  -18.15500   11.90500  -18.94200  # f_1 F2 r125 27
214 27 5 -0.170758  -18.36300    9.94300  -16.02200  # f_2 F3 r125 27
215 27 5 -0.170758  -17.41400    9.43300  -17.91500  # f_2 F4 r125 27
216 27 5 -0.170758  -19.55900    9.80200  -17.83700  # f_2 F5 r125 27
217 28 1  0.224067   -6.63900   13.19300   19.74700  # c3_1 C1 r125 28
218 28 2  0.500886   -5.68000   12.67200   18.65800  # c3_2 C2 r125 28
219 28 3 -0.167131   -6.99400   12.16400   20.55300  # f_1 F1 r125 28
220 28 4  0.121583   -7.53300   13.63200   19.30000  # h2 H1 r125 28
221 28 3 -0.167131   -5.99800   14.12700   20.49000  # f_1 F2 r125 28
222 28 5 -0.170758   -6.30500   11.74400   17.91300  # f_2 F3 r125 28
223 28 5 -0.170758   -4.57800   12.13000   19.18200  # f_2 F4 r125 28
224 28 5 -0.170758   -5.32200   13.68600   17.85200  # f_2 F5 r125 28
225 29 1  0.224067   16.03100  -10.84800   22.06800  # c3_1 C1 r125 29
226 29 2  0.500886   16.75600   -9.61100   21.50200  # c3_2 C2 r125 29
227 29 3 -0.167131   16.70700  -11.30200   23.15000  # f_1 F1 r125 29
228 29 4  0.121583   15.97000  -11.63900   21.31700  # h2 H1 r125 29
229 29 3 -0.167131   14.78100  -10.49100   22.45200  # f_1 F2 r125 29
230 29 5 -0.170758   17.99700   -9.95300   21.11700  # f_2 F3 r125 29
231 29 5 -0.170758   16.84200   -8.62900   22.40300  # f_2 F4 r125 29
232 29 5 -0.170758   16.09300   -9.15300   20.42700  # f_2 F5 r125 29
233 30 1  0.224067   25.35800  -25.51200  -17.87600  # c3_1 C1 r125 30
234 30 2  0.500886   26.15300  -24.19100  -17.90100  # c3_2 C2 r125 30
235 30 3 -0.167131   24.14100  -25.30700  -18.43300  # f_1 F1 r125 30
236 30 4  0.121583   25.23600  -25.87200  -16.85200  # h2 H1 r125 30
237 30 3 -0.167131   26.02200  -26.44100  -18.60700  # f_1 F2 r125 30
238 30 5 -0.170758   25.50400  -23.26200  -17.17800  # f_2 F3 r125 30
239 30 5 -0.170758   26.31500  -23.73100  -19.14300  # f_2 F4 r125 30
240 30 5 -0.170758   27.36300  -24.38300  -17.34900  # f_2 F5 r125 30
241 31 1  0.224067  -23.27000   15.74400  -23.31600  # c3_1 C1 r125 31
242 31 2  0.500886  -22.07400   15.88000  -22.35200  # c3_2 C2 r125 31
243 31 3 -0.167131  -22.96900   16.36000  -24.48400  # f_1 F1 r125 31
244 31 4  0.121583  -24.16800   16.19300  -22.88700  # h2 H1 r125 31
245 31 3 -0.167131  -23.49200   14.43000  -23.56100  # f_1 F2 r125 31
246 31 5 -0.170758  -21.84400   17.18100  -22.10200  # f_2 F3 r125 31
247 31 5 -0.170758  -20.96300   15.33800  -22.85700  # f_2 F4 r125 31
248 31 5 -0.170758  -22.36200   15.27300  -21.18900  # f_2 F5 r125 31
249 32 1  0.224067   12.51900    1.92600   24.08600  # c3_1 C1 r125 32
250 32 2  0.500886   12.85400    1.49000   22.64500  # c3_2 C2 r125 32
251 32 3 -0.167131   13.53500    2.68200   24.56700  # f_1 F1 r125 32
252 32 4  0.121583   12.37400    1.05700   24.73100  # h2 H1 r125 32
253 32 3 -0.167131   11.38900    2.67300   24.07000  # f_1 F2 r125 32
254 32 5 -0.170758   13.97500    0.74700   22.64900  # f_2 F3 r125 32
255 32 5 -0.170758   13.03700    2.53700   21.83700  # f_2 F4 r125 32
256 32 5 -0.170758   11.85300    0.73700   22.15900  # f_2 F5 r125 32
257 33 1  0.224067    3.63200   15.67000  -22.43500  # c3_1 C1 r125 33
258 33 2  0.500886    3.35700   17.01200  -21.72700  # c3_2 C2 r125 33
259 33 3 -0.167131    4.47800   14.93400  -21.67600  # f_1 F1 r125 33
260 33 4  0.121583    4.07400   15.83500  -23.42000  # h2 H1 r125 33
261 33 3 -0.167131    2.46500   14.99400  -22.56900  # f_1 F2 r125 33
262 33 5 -0.170758    4.50900   17.69200  -21.58800  # f_2 F3 r125 33
263 33 5 -0.170758    2.81600   16.83600  -20.51900  # f_2 F4 r125 33
264 33 5 -0.170758    2.52000   17.75200  -22.47200  # f_2 F5 r125 33
265 34 1  0.224067    4.90800   -7.15300    8.29700  # c3_1 C1 r125 34
266 34 2  0.500886    5.79200   -8.41600    8.35500  # c3_2 C2 r125 34
267 34 3 -0.167131    3.75900   -7.38500    8.97500  # f_1 F1 r125 34
268 34 4  0.121583    4.67600   -6.88900    7.26300  # h2 H1 r125 34
269 34 3 -0.167131    5.56500   -6.12700    8.89000  # f_1 F2 r125 34
270 34 5 -0.170758    5.15000   -9.44100    7.76800  # f_2 F3 r125 34
271 34 5 -0.170758    6.08900   -8.75900    9.61000  # f_2 F4 r125 34
272 34 5 -0.170758    6.93500   -8.19700    7.68400  # f_2 F5 r125 34
273 35 1  0.224067   10.61700  -22.80800   21.73700  # c3_1 C1 r125 35
274 35 2  0.500886    9.26400  -23.53800   21.61600  # c3_2 C2 r125 35
275 35 3 -0.167131   10.43500  -21.64900   22.41400  # f_1 F1 r125 35
276 35 4  0.121583   11.03200  -22.59400   20.75000  # h2 H1 r125 35
277 35 3 -0.167131   11.47900  -23.58900   22.43300  # f_1 F2 r125 35
278 35 5 -0.170758    8.40000  -22.77200   20.92700  # f_2 F3 r125 35
279 35 5 -0.170758    8.73500  -23.81100   22.81100  # f_2 F4 r125 35
280 35 5 -0.170758    9.43200  -24.68900   20.94400  # f_2 F5 r125 35
281 36 1  0.224067   11.00500   -3.54300   -9.64200  # c3_1 C1 r125 36
282 36 2  0.500886   10.93400   -2.40900   -8.59900  # c3_2 C2 r125 36
283 36 3 -0.167131   11.36800   -4.69200   -9.02300  # f_1 F1 r125 36
284 36 4  0.121583   11.72700   -3.30600  -10.42500  # h2 H1 r125 36
285 36 3 -0.167131    9.77800   -3.71400  -10.19300  # f_1 F2 r125 36
286 36 5 -0.170758   12.14600   -2.23100   -8.04600  # f_2 F3 r125 36
287 36 5 -0.170758   10.05600   -2.67700   -7.63000  # f_2 F4 r125 36
288 36 5 -0.170758   10.57500   -1.26400   -9.20400  # f_2 F5 r125 36
289 37 1  0.224067    5.84800  -24.31900  -10.67400  # c3_1 C1 r125 37
290 37 2  0.500886    6.33600  -25.51100   -9.82600  # c3_2 C2 r125 37
291 37 3 -0.167131    6.92200  -23.63800  -11.14100  # f_1 F1 r125 37
292 37 4  0.121583    5.22200  -23.65000  -10.08000  # h2 H1 r125 37
293 37 3 -0.167131    5.13700  -24.78800  -11.72800  # f_1 F2 r125 37
294 37 5 -0.170758    7.04300  -25.05700   -8.77600  # f_2 F3 r125 37
295 37 5 -0.170758    7.10500  -26.34300  -10.53200  # f_2 F4 r125 37
296 37 5 -0.170758    5.27800  -26.19200   -9.35700  # f_2 F5 r125 37
297 38 1  0.224067  -15.62900  -14.20400    8.72200  # c3_1 C1 r125 38
298 38 2  0.500886  -16.62400  -14.63600    7.62700  # c3_2 C2 r125 38
299 38 3 -0.167131  -15.81900  -12.89200    9.00100  # f_1 F1 r125 38
300 38 4  0.121583  -14.59900  -14.36200    8.39600  # h2 H1 r125 38
301 38 3 -0.167131  -15.86500  -14.92700    9.84400  # f_1 F2 r125 38
302 38 5 -0.170758  -16.39900  -13.92500    6.50800  # f_2 F3 r125 38
303 38 5 -0.170758  -17.89100  -14.45200    8.00400  # f_2 F4 r125 38
304 38 5 -0.170758  -16.44300  -15.93600    7.34200  # f_2 F5 r125 38
305 39 1  0.224067   -0.56200    0.82300   -9.71900  # c3_1 C1 r125 39
306 39 2  0.500886   -0.72400   -0.18100  -10.87700  # c3_2 C2 r125 39
307 39 3 -0.167131   -1.53900    0.60900   -8.80600  # f_1 F1 r125 39
308 39 4  0.121583   -0.62200    1.85100  -10.08400  # h2 H1 r125 39
309 39 3 -0.167131    0.64000    0.62300   -9.12500  # f_1 F2 r125 39
310 39 5 -0.170758   -1.91300    0.00800  -11.47400  # f_2 F3 r125 39
311 39 5 -0.170758   -0.65300   -1.44600  -10.45400  # f_2 F4 r125 39
312 39 5 -0.170758    0.24100    0.02400  -11.78900  # f_2 F5 r125 39
313 40 1  0.224067   22.38500  -22.67200    9.26200  # c3_1 C1 r125 40
314 40 2  0.500886   21.70100  -22.20600   10.56300  # c3_2 C2 r125 40
315 40 3 -0.167131   21.94600  -21.90800    8.23300  # f_1 F1 r125 40
316 40 4  0.121583   22.16000  -23.72200    9.06000  # h2 H1 r125 40
317 40 3 -0.167131   23.72500  -22.51100    9.38500  # f_1 F2 r125 40
318 40 5 -0.170758   20.37000  -22.36100   10.45300  # f_2 F3 r125 40
319 40 5 -0.170758   21.96100  -20.92400   10.83100  # f_2 F4 r125 40
320 40 5 -0.170758   22.12800  -22.95800   11.59100  # f_2 F5 r125 40
321 41 1  0.224067   -0.20900   22.47500   15.37800  # c3_1 C1 r125 41
322 41 2  0.500886    1.14300   23.21500   15.41300  # c3_2 C2 r125 41
323 41 3 -0.167131   -0.10100   21.32200   16.07900  # f_1 F1 r125 41
324 41 4  0.121583   -0.50300   22.25100   14.35000  # h2 H1 r125 41
325 41 3 -0.167131   -1.15400   23.25200   15.96000  # f_1 F2 r125 41
326 41 5 -0.170758    2.08900   22.45300   14.83700  # f_2 F3 r125 41
327 41 5 -0.170758    1.52300   23.50000   16.66100  # f_2 F4 r125 41
328 41 5 -0.170758    1.04700   24.36100   14.71800  # f_2 F5 r125 41
329 42 1  0.224067    7.29300  -25.62000    1.00400  # c3_1 C1 r125 42
330 42 2  0.500886    8.19200  -24.78800    0.06700  # c3_2 C2 r125 42
331 42 3 -0.167131    6.52100  -26.44600    0.25900  # f_1 F1 r125 42
332 42 4  0.121583    6.65600  -24.97000    1.60800  # h2 H1 r125 42
333 42 3 -0.167131    8.07600  -26.37000    1.81600  # f_1 F2 r125 42
334 42 5 -0.170758    7.42500  -24.03900   -0.74500  # f_2 F3 r125 42
335 42 5 -0.170758    8.98000  -25.56200   -0.68300  # f_2 F4 r125 42
336 42 5 -0.170758    8.96200  -23.96400    0.79600  # f_2 F5 r125 42
337 43 1  0.224067  -11.33400  -20.29700  -18.60300  # c3_1 C1 r125 43
338 43 2  0.500886  -12.53200  -19.67800  -19.35100  # c3_2 C2 r125 43
339 43 3 -0.167131  -11.67300  -21.53500  -18.17100  # f_1 F1 r125 43
340 43 4  0.121583  -11.04700  -19.67800  -17.75000  # h2 H1 r125 43
341 43 3 -0.167131  -10.28700  -20.40400  -19.45700  # f_1 F2 r125 43
342 43 5 -0.170758  -13.57700  -19.56600  -18.51300  # f_2 F3 r125 43
343 43 5 -0.170758  -12.90100  -20.41800  -20.40000  # f_2 F4 r125 43
344 43 5 -0.170758  -12.20600  -18.44800  -19.78300  # f_2 F5 r125 43
345 44 1  0.224067   22.85400    7.28500   -3.12400  # c3_1 C1 r125 44
346 44 2  0.500886   22.85200    6.92200   -1.62500  # c3_2 C2 r125 44
347 44 3 -0.167131   21.60600    7.11400   -3.62300  # f_1 F1 r125 44
348 44 4  0.121583   23.55700    6.65700   -3.67500  # h2 H1 r125 44
349 44 3 -0.167131   23.20400    8.58700   -3.26300  # f_1 F2 r125 44
350 44 5 -0.170758   22.50500    5.63200   -1.47500  # f_2 F3 r125 44
351 44 5 -0.170758   21.99800    7.67900   -0.93100  # f_2 F4 r125 44
352 44 5 -0.170758   24.08500    7.08700   -1.12000  # f_2 F5 r125 44
353 45 1  0.224067   -6.10500  -10.80900    7.42600  # c3_1 C1 r125 45
354 45 2  0.500886   -6.36400   -9.29000    7.35600  # c3_2 C2 r125 45
355 45 3 -0.167131   -5.63800  -11.23400    6.22900  # f_1 F1 r125 45
356 45 4  0.121583   -7.02300  -11.34700    7.67300  # h2 H1 r125 45
357 45 3 -0.167131   -5.16700  -11.05400    8.37300  # f_1 F2 r125 45
358 45 5 -0.170758   -7.29400   -9.03400    6.42000  # f_2 F3 r125 45
359 45 5 -0.170758   -5.25500   -8.60900    7.05500  # f_2 F4 r125 45
360 45 5 -0.170758   -6.82900   -8.85700    8.54000  # f_2 F5 r125 45
361 46 1  0.224067  -26.29300    2.12100   13.57600  # c3_1 C1 r125 46
362 46 2  0.500886  -26.03500    3.49500   14.22600  # c3_2 C2 r125 46
363 46 3 -0.167131  -25.76400    2.11500   12.33000  # f_1 F1 r125 46
364 46 4  0.121583  -27.36300    1.91200   13.52100  # h2 H1 r125 46
365 46 3 -0.167131  -25.68100    1.16200   14.31400  # f_1 F2 r125 46
366 46 5 -0.170758  -26.63700    4.45500   13.50300  # f_2 F3 r125 46
367 46 5 -0.170758  -24.73100    3.77300   14.30500  # f_2 F4 r125 46
368 46 5 -0.170758  -26.55700    3.51300   15.46400  # f_2 F5 r125 46
369 47 1  0.224067   13.69900   -5.47900    6.64900  # c3_1 C1 r125 47
370 47 2  0.500886   13.74400   -4.01000    7.11700  # c3_2 C2 r125 47
371 47 3 -0.167131   14.71800   -6.15800    7.22700  # f_1 F1 r125 47
372 47 4  0.121583   13.78700   -5.54300    5.56200  # h2 H1 r125 47
373 47 3 -0.167131   12.52700   -6.03200    7.04300  # f_1 F2 r125 47
374 47 5 -0.170758   14.90400   -3.45000    6.73100  # f_2 F3 r125 47
375 47 5 -0.170758   13.63900   -3.90600    8.44400  # f_2 F4 r125 47
376 47 5 -0.170758   12.73700   -3.32600    6.54800  # f_2 F5 r125 47
377 48 1  0.224067    5.42700   -1.02800  -19.29900  # c3_1 C1 r125 48
378 48 2  0.500886    3.99100   -1.58300  -19.21400  # c3_2 C2 r125 48
379 48 3 -0.167131    6.00500   -1.10500  -18.07600  # f_1 F1 r125 48
380 48 4  0.121583    5.42300    0.01100  -19.63600  # h2 H1 r125 48
381 48 3 -0.167131    6.14200   -1.78400  -20.16700  # f_1 F2 r125 48
382 48 5 -0.170758    3.27200   -0.83900  -18.35500  # f_2 F3 r125 48
383 48 5 -0.170758    3.97100   -2.85300  -18.80200  # f_2 F4 r125 48
384 48 5 -0.170758    3.40800   -1.51000  -20.42200  # f_2 F5 r125 48
385 49 1  0.224067   -3.18500    1.18900    5.70200  # c3_1 C1 r125 49
386 49 2  0.500886   -3.52400    1.95600    4.40900  # c3_2 C2 r125 49
387 49 3 -0.167131   -4.17800    1.38000    6.60300  # f_1 F1 r125 49
388 49 4  0.121583   -2.23900    1.53400    6.12200  # h2 H1 r125 49
389 49 3 -0.167131   -3.10100   -0.13500    5.42100  # f_1 F2 r125 49
390 49 5 -0.170758   -3.61000    3.27100    4.67500  # f_2 F3 r125 49
391 49 5 -0.170758   -4.67900    1.55100    3.87600  # f_2 F4 r125 49
392 49 5 -0.170758   -2.54400    1.77400    3.50700  # f_2 F5 r125 49
393 50 1  0.224067   12.27600   23.18100   20.47800  # c3_1 C1 r125 50
394 50 2  0.500886   13.75500   23.61000   20.55000  # c3_2 C2 r125 50
395 50 3 -0.167131   11.50500   24.27800   20.28900  # f_1 F1 r125 50
396 50 4  0.121583   11.97300   22.67500   21.39700  # h2 H1 r125 50
397 50 3 -0.167131   12.10900   22.34500   19.42400  # f_1 F2 r125 50
398 50 5 -0.170758   13.93300   24.44000   21.59300  # f_2 F3 r125 50
399 50 5 -0.170758   14.14900   24.23100   19.43600  # f_2 F4 r125 50
400 50 5 -0.170758   14.52900   22.52800   20.73800  # f_2 F5 r125 50
401 51 1  0.224067    8.06000   -3.87000    7.47500  # c3_1 C1 r125 51
402 51 2  0.500886    7.87500   -2.38300    7.10900  # c3_2 C2 r125 51
403 51 3 -0.167131    9.17600   -4.33900    6.86800  # f_1 F1 r125 51
404 51 4  0.121583    7.19600   -4.45800    7.15700  # h2 H1 r125 51
405 51 3 -0.167131    8.21400   -3.97900    8.81700  # f_1 F2 r125 51
406 51 5 -0.170758    7.72100   -2.26200    5.77900  # f_2 F3 r125 51
407 51 5 -0.170758    8.92000   -1.64300    7.48800  # f_2 F4 r125 51
408 51 5 -0.170758    6.76900   -1.90700    7.70600  # f_2 F5 r125 51
409 52 1  0.224067   13.21600   18.11600   17.21600  # c3_1 C1 r125 52
410 52 2  0.500886   13.55200   19.58200   17.55700  # c3_2 C2 r125 52
411 52 3 -0.167131   14.11200   17.30300   17.82600  # f_1 F1 r125 52
412 52 4  0.121583   13.24900   17.95100   16.13700  # h2 H1 r125 52
413 52 3 -0.167131   11.97700   17.82600   17.68200  # f_1 F2 r125 52